
     Program BANDS v.7.1 starts on 10Jun2026 at 20:13:15 

     This program is part of the open-source Quantum ESPRESSO suite
     for quantum simulation of materials; please cite
         "P. Giannozzi et al., J. Phys.:Condens. Matter 21 395502 (2009);
         "P. Giannozzi et al., J. Phys.:Condens. Matter 29 465901 (2017);
         "P. Giannozzi et al., J. Chem. Phys. 152 154105 (2020);
          URL http://www.quantum-espresso.org", 
     in publications or presentations arising from this work. More details at
     http://www.quantum-espresso.org/quote

     Parallel version (MPI & OpenMP), running on       7 processor cores
     Number of MPI processes:                 7
     Threads/MPI process:                     1

     MPI processes distributed on     7 nodes
     R & G space division:  proc/nbgrp/npool/nimage =       7
     223956 MiB available memory on the printing compute node when the environment starts
 

     Reading xml data from directory:

     ./data/scf.save/

     IMPORTANT: XC functional enforced from input :
     Exchange-correlation= PBE
                           (   1   4   3   4   0   0   0)
     Any further DFT definition will be discarded
     Please, verify this is what you really want

 
     Parallelization info
     --------------------
     sticks:   dense  smooth     PW     G-vecs:    dense   smooth      PW
     Min         115      44     17                 2151      545     127
     Max         115      45     18                 2153      550     129
     Sum         805     313    121                15065     3839     893
 
     Using Slab Decomposition
 
     Reading collected, re-writing distributed wavefunctions
     high-symmetry point:  0.3536-0.3536 0.3536   x coordinate   0.0000
     high-symmetry point:  0.0000 0.0000 0.0000   x coordinate   0.6124
     high-symmetry point:  0.0000-0.7071 0.0000   x coordinate   1.3195
     high-symmetry point: -0.7071-0.7071 0.7071   x coordinate   2.3195

     Plottable bands (eV) written to file Al.band.gnu
     Bands written to file Al.band

 **************************************************************************

                    xk=(   0.35355,  -0.35355,   0.35355  )

     point group D_3d (-3m) 
     there are  6 classes
     the character table:

       E     2C3   3C2'  i     2S6   3s_d 
A_1g   1.00  1.00  1.00  1.00  1.00  1.00
A_2g   1.00  1.00 -1.00  1.00  1.00 -1.00
E_g    2.00 -1.00  0.00  2.00 -1.00  0.00
A_1u   1.00  1.00  1.00 -1.00 -1.00 -1.00
A_2u   1.00  1.00 -1.00 -1.00 -1.00  1.00
E_u    2.00 -1.00  0.00 -2.00  1.00  0.00

     the symmetry operations in each class and the name of the first element:

     E        1
                                                                 
     2C3      5    6
                                                                 
     3C2'     2    4    3
                                                                 
     i        7
                                                                 
     2S6     11   12
                                                                 
     3s_d     8   10    9
                                                                 

     Band symmetry, D_3d (-3m)  point group:

     e(  1 -  1) =      3.29065  eV     1   --> A_2u L_2'      
     e(  2 -  2) =      3.54024  eV     1   --> A_1g L_1       
     e(  3 -  4) =     19.21370  eV     2   --> E_u  L_3'      
     e(  5 -  6) =     19.38403  eV     2   --> E_g  L_3       
     e(  7 -  7) =     22.94438  eV     1   --> A_1g L_1       
     e(  8 -  8) =     23.03541  eV     1   --> A_2u L_2'      
     e(  9 - 10) =     32.64562  eV     2   --> E_g  L_3       
     e( 11 - 12) =     38.38600  eV     2   --> E_u  L_3'      

 **************************************************************************

 **************************************************************************

                    xk=(   0.34471,  -0.34471,   0.34471  )

     point group C_3v (3m)  
     there are  3 classes
     the character table:

       E     2C3   3s_v 
A_1    1.00  1.00  1.00
A_2    1.00  1.00 -1.00
E      2.00 -1.00  0.00

     the symmetry operations in each class and the name of the first element:

     E        1
                                                                 
     2C3      2    3
                                                                 
     3s_v     4    5    6
                                                                 

     Band symmetry, C_3v (3m)   point group:

     e(  1 -  1) =      3.06939  eV     1   --> A_1  L_1       
     e(  2 -  2) =      3.76898  eV     1   --> A_1  L_1       
     e(  3 -  4) =     19.17356  eV     2   --> E    L_3       
     e(  5 -  6) =     19.43124  eV     2   --> E    L_3       
     e(  7 -  7) =     22.87164  eV     1   --> A_1  L_1       
     e(  8 -  8) =     23.11537  eV     1   --> A_1  L_1       
     e(  9 - 10) =     32.60556  eV     2   --> E    L_3       
     e( 11 - 12) =     38.43321  eV     2   --> E    L_3       

 **************************************************************************

 **************************************************************************

                    xk=(   0.33588,  -0.33588,   0.33588  )

     Band symmetry, C_3v (3m)   point group:

     e(  1 -  1) =      2.76508  eV     1   --> A_1  L_1       
     e(  2 -  2) =      4.09570  eV     1   --> A_1  L_1       
     e(  3 -  4) =     19.10174  eV     2   --> E    L_3       
     e(  5 -  6) =     19.52427  eV     2   --> E    L_3       
     e(  7 -  7) =     22.77374  eV     1   --> A_1  L_1       
     e(  8 -  8) =     23.23489  eV     1   --> A_1  L_1       
     e(  9 - 10) =     32.48922  eV     2   --> E    L_3       
     e( 11 - 12) =     38.57094  eV     2   --> E    L_3       

 **************************************************************************

 **************************************************************************

                    xk=(   0.32704,  -0.32704,   0.32704  )

     Band symmetry, C_3v (3m)   point group:

     e(  1 -  1) =      2.46104  eV     1   --> A_1  L_1       
     e(  2 -  2) =      4.43709  eV     1   --> A_1  L_1       
     e(  3 -  4) =     19.02845  eV     2   --> E    L_3       
     e(  5 -  6) =     19.63290  eV     2   --> E    L_3       
     e(  7 -  7) =     22.68035  eV     1   --> A_1  L_1       
     e(  8 -  8) =     23.36427  eV     1   --> A_1  L_1       
     e(  9 - 10) =     32.30655  eV     2   --> E    L_3       
     e( 11 - 11) =     38.41026  eV     1   --> A_1  L_1       
     e( 12 - 12) =     38.78893  eV     1   -->   ?

 **************************************************************************

 **************************************************************************

                    xk=(   0.31820,  -0.31820,   0.31820  )

     Band symmetry, C_3v (3m)   point group:

     e(  1 -  1) =      2.16270  eV     1   --> A_1  L_1       
     e(  2 -  2) =      4.78772  eV     1   --> A_1  L_1       
     e(  3 -  4) =     18.95954  eV     2   --> E    L_3       
     e(  5 -  6) =     19.75126  eV     2   --> E    L_3       
     e(  7 -  7) =     22.59355  eV     1   --> A_1  L_1       
     e(  8 -  8) =     23.50139  eV     1   --> A_1  L_1       
     e(  9 - 10) =     32.07042  eV     2   --> E    L_3       
     e( 11 - 11) =     38.19027  eV     1   --> A_1  L_1       
     e( 12 - 12) =     39.07383  eV     1   -->   ?

 **************************************************************************

 **************************************************************************

                    xk=(   0.30936,  -0.30936,   0.30936  )

     Band symmetry, C_3v (3m)   point group:

     e(  1 -  1) =      1.87125  eV     1   --> A_1  L_1       
     e(  2 -  2) =      5.14637  eV     1   --> A_1  L_1       
     e(  3 -  4) =     18.89657  eV     2   --> E    L_3       
     e(  5 -  6) =     19.87778  eV     2   --> E    L_3       
     e(  7 -  7) =     22.51378  eV     1   --> A_1  L_1       
     e(  8 -  8) =     23.64568  eV     1   --> A_1  L_1       
     e(  9 - 10) =     31.79356  eV     2   --> E    L_3       
     e( 11 - 11) =     37.92873  eV     1   --> A_1  L_1       
     e( 12 - 12) =     39.41206  eV     1   -->   ?

 **************************************************************************

 **************************************************************************

                    xk=(   0.30052,  -0.30052,   0.30052  )

     Band symmetry, C_3v (3m)   point group:

     e(  1 -  1) =      1.58713  eV     1   --> A_1  L_1       
     e(  2 -  2) =      5.51260  eV     1   --> A_1  L_1       
     e(  3 -  4) =     18.84008  eV     2   --> E    L_3       
     e(  5 -  6) =     20.01186  eV     2   --> E    L_3       
     e(  7 -  7) =     22.44120  eV     1   --> A_1  L_1       
     e(  8 -  8) =     23.79690  eV     1   --> A_1  L_1       
     e(  9 - 10) =     31.48696  eV     2   --> E    L_3       
     e( 11 - 11) =     37.63478  eV     1   --> A_1  L_1       
     e( 12 - 12) =     39.79134  eV     1   -->   ?

 **************************************************************************

 **************************************************************************

                    xk=(   0.29168,  -0.29168,   0.29168  )

     Band symmetry, C_3v (3m)   point group:

     e(  1 -  1) =      1.31055  eV     1   --> A_1  L_1       
     e(  2 -  2) =      5.88616  eV     1   --> A_1  L_1       
     e(  3 -  4) =     18.79035  eV     2   --> E    L_3       
     e(  5 -  6) =     20.15323  eV     2   --> E    L_3       
     e(  7 -  7) =     22.37584  eV     1   --> A_1  L_1       
     e(  8 -  8) =     23.95484  eV     1   --> A_1  L_1       
     e(  9 - 10) =     31.15940  eV     2   --> E    L_3       
     e( 11 - 11) =     37.31584  eV     1   --> A_1  L_1       
     e( 12 - 12) =     40.20083  eV     1   -->   ?

 **************************************************************************

 **************************************************************************

                    xk=(   0.28284,  -0.28284,   0.28284  )

     Band symmetry, C_3v (3m)   point group:

     e(  1 -  1) =      1.04164  eV     1   --> A_1  L_1       
     e(  2 -  2) =      6.26692  eV     1   --> A_1  L_1       
     e(  3 -  4) =     18.74747  eV     2   --> E    L_3       
     e(  5 -  6) =     20.30171  eV     2   --> E    L_3       
     e(  7 -  7) =     22.31771  eV     1   --> A_1  L_1       
     e(  8 -  8) =     24.11934  eV     1   --> A_1  L_1       
     e(  9 - 10) =     30.81760  eV     2   --> E    L_3       
     e( 11 - 11) =     36.97772  eV     1   --> A_1  L_1       
     e( 12 - 12) =     40.63043  eV     1   -->   ?

 **************************************************************************

 **************************************************************************

                    xk=(   0.27400,  -0.27400,   0.27400  )

     Band symmetry, C_3v (3m)   point group:

     e(  1 -  1) =      0.78049  eV     1   --> A_1  L_1       
     e(  2 -  2) =      6.65474  eV     1   --> A_1  L_1       
     e(  3 -  4) =     18.71154  eV     2   --> E    L_3       
     e(  5 -  6) =     20.45718  eV     2   --> E    L_3       
     e(  7 -  7) =     22.26679  eV     1   --> A_1  L_1       
     e(  8 -  8) =     24.29021  eV     1   --> A_1  L_1       
     e(  9 - 10) =     30.46666  eV     2   --> E    L_3       
     e( 11 - 11) =     36.62479  eV     1   --> A_1  L_1       
     e( 12 - 12) =     41.06936  eV     1   -->   ?

 **************************************************************************

 **************************************************************************

                    xk=(   0.26517,  -0.26517,   0.26517  )

     Band symmetry, C_3v (3m)   point group:

     e(  1 -  1) =      0.52717  eV     1   --> A_1  L_1       
     e(  2 -  2) =      7.04953  eV     1   --> A_1  L_1       
     e(  3 -  4) =     18.68257  eV     2   --> E    L_3       
     e(  5 -  6) =     20.61952  eV     2   --> E    L_3       
     e(  7 -  7) =     22.22302  eV     1   --> A_1  L_1       
     e(  8 -  8) =     24.46725  eV     1   --> A_1  L_1       
     e(  9 - 10) =     30.11040  eV     2   --> E    L_3       
     e( 11 - 11) =     36.26035  eV     1   --> A_1  L_1       
     e( 12 - 12) =     41.50366  eV     1   -->   ?

 **************************************************************************

 **************************************************************************

                    xk=(   0.25633,  -0.25633,   0.25633  )

     Band symmetry, C_3v (3m)   point group:

     e(  1 -  1) =      0.28174  eV     1   --> A_1  L_1       
     e(  2 -  2) =      7.45119  eV     1   --> A_1  L_1       
     e(  3 -  4) =     18.66059  eV     2   --> E    L_3       
     e(  5 -  6) =     20.78862  eV     2   --> E    L_3       
     e(  7 -  7) =     22.18633  eV     1   --> A_1  L_1       
     e(  8 -  8) =     24.65028  eV     1   --> A_1  L_1       
     e(  9 - 10) =     29.75172  eV     2   --> E    L_3       
     e( 11 - 11) =     35.88682  eV     1   --> A_1  L_1       
     e( 12 - 12) =     41.91142  eV     1   -->   ?

 **************************************************************************

 **************************************************************************

                    xk=(   0.24749,  -0.24749,   0.24749  )

     Band symmetry, C_3v (3m)   point group:

     e(  1 -  1) =      0.04424  eV     1   --> A_1  L_1       
     e(  2 -  2) =      7.85963  eV     1   --> A_1  L_1       
     e(  3 -  4) =     18.64562  eV     2   --> E    L_3       
     e(  5 -  6) =     20.96435  eV     2   --> E    L_3       
     e(  7 -  7) =     22.15662  eV     1   --> A_1  L_1       
     e(  8 -  8) =     24.83905  eV     1   --> A_1  L_1       
     e(  9 - 10) =     29.39284  eV     2   --> E    L_3       
     e( 11 - 11) =     35.50598  eV     1   --> A_1  L_1       
     e( 12 - 12) =     42.25415  eV     1   -->   ?

 **************************************************************************

 **************************************************************************

                    xk=(   0.23865,  -0.23865,   0.23865  )

     Band symmetry, C_3v (3m)   point group:

     e(  1 -  1) =     -0.18527  eV     1   --> A_1  L_1       
     e(  2 -  2) =      8.27476  eV     1   --> A_1  L_1       
     e(  3 -  4) =     18.63764  eV     2   --> E    L_3       
     e(  5 -  6) =     21.14658  eV     2   --> E    L_3       
     e(  7 -  7) =     22.13378  eV     1   --> A_1  L_1       
     e(  8 -  8) =     25.03333  eV     1   --> A_1  L_1       
     e(  9 - 10) =     29.03549  eV     2   --> E    L_3       
     e( 11 - 11) =     35.11908  eV     1   --> A_1  L_1       
     e( 12 - 12) =     42.46732  eV     1   -->   ?

 **************************************************************************

 **************************************************************************

                    xk=(   0.22981,  -0.22981,   0.22981  )

     Band symmetry, C_3v (3m)   point group:

     e(  1 -  1) =     -0.40676  eV     1   --> A_1  L_1       
     e(  2 -  2) =      8.69647  eV     1   --> A_1  L_1       
     e(  3 -  4) =     18.63667  eV     2   --> E    L_3       
     e(  5 -  6) =     21.33512  eV     2   --> E    L_3       
     e(  7 -  7) =     22.11766  eV     1   --> A_1  L_1       
     e(  8 -  8) =     25.23285  eV     1   --> A_1  L_1       
     e(  9 - 10) =     28.68106  eV     2   --> E    L_3       
     e( 11 - 11) =     34.72702  eV     1   --> A_1  L_1       
     e( 12 - 12) =     42.08260  eV     1   --> A_1  L_1       

 **************************************************************************

 **************************************************************************

                    xk=(   0.22097,  -0.22097,   0.22097  )

     Band symmetry, C_3v (3m)   point group:

     e(  1 -  1) =     -0.62018  eV     1   --> A_1  L_1       
     e(  2 -  2) =      9.12468  eV     1   --> A_1  L_1       
     e(  3 -  4) =     18.64269  eV     2   --> E    L_3       
     e(  5 -  6) =     21.52977  eV     2   --> E    L_3       
     e(  7 -  7) =     22.10810  eV     1   --> A_1  L_1       
     e(  8 -  8) =     25.43731  eV     1   --> A_1  L_1       
     e(  9 - 10) =     28.33070  eV     2   --> E    L_3       
     e( 11 - 11) =     34.33033  eV     1   --> A_1  L_1       
     e( 12 - 12) =     41.44879  eV     1   --> A_1  L_1       

 **************************************************************************

 **************************************************************************

                    xk=(   0.21213,  -0.21213,   0.21213  )

     Band symmetry, C_3v (3m)   point group:

     e(  1 -  1) =     -0.82551  eV     1   --> A_1  L_1       
     e(  2 -  2) =      9.55926  eV     1   --> A_1  L_1       
     e(  3 -  4) =     18.65568  eV     2   --> E    L_3       
     e(  5 -  6) =     21.73022  eV     2   --> E    L_3       
     e(  7 -  7) =     22.10491  eV     1   --> A_1  L_1       
     e(  8 -  8) =     25.64638  eV     1   --> A_1  L_1       
     e(  9 - 10) =     27.98539  eV     2   --> E    L_3       
     e( 11 - 11) =     33.92931  eV     1   --> A_1  L_1       
     e( 12 - 12) =     40.82220  eV     1   --> A_1  L_1       

 **************************************************************************

 **************************************************************************

                    xk=(   0.20329,  -0.20329,   0.20329  )

     Band symmetry, C_3v (3m)   point group:

     e(  1 -  1) =     -1.02270  eV     1   --> A_1  L_1       
     e(  2 -  2) =     10.00010  eV     1   --> A_1  L_1       
     e(  3 -  4) =     18.67565  eV     2   --> E    L_3       
     e(  5 -  6) =     21.93611  eV     2   --> E    L_3       
     e(  7 -  7) =     22.10785  eV     1   --> A_1  L_1       
     e(  8 -  8) =     25.85968  eV     1   --> A_1  L_1       
     e(  9 - 10) =     27.64604  eV     2   --> E    L_3       
     e( 11 - 11) =     33.52403  eV     1   --> A_1  L_1       
     e( 12 - 12) =     40.20473  eV     1   --> A_1  L_1       

 **************************************************************************

 **************************************************************************

                    xk=(   0.19445,  -0.19445,   0.19445  )

     Band symmetry, C_3v (3m)   point group:

     e(  1 -  1) =     -1.21173  eV     1   --> A_1  L_1       
     e(  2 -  2) =     10.44709  eV     1   --> A_1  L_1       
     e(  3 -  4) =     18.70255  eV     2   --> E    L_3       
     e(  5 -  5) =     22.11666  eV     1   --> A_1  L_1       
     e(  6 -  7) =     22.14693  eV     2   --> E    L_3       
     e(  8 -  8) =     26.07682  eV     1   --> A_1  L_1       
     e(  9 - 10) =     27.31356  eV     2   --> E    L_3       
     e( 11 - 11) =     33.11438  eV     1   --> A_1  L_1       
     e( 12 - 12) =     39.59821  eV     1   --> A_1  L_1       

 **************************************************************************

 **************************************************************************

                    xk=(   0.18562,  -0.18562,   0.18562  )

     Band symmetry, C_3v (3m)   point group:

     e(  1 -  1) =     -1.39256  eV     1   --> A_1  L_1       
     e(  2 -  2) =     10.90008  eV     1   --> A_1  L_1       
     e(  3 -  4) =     18.73637  eV     2   --> E    L_3       
     e(  5 -  5) =     22.13104  eV     1   --> A_1  L_1       
     e(  6 -  7) =     22.36197  eV     2   --> E    L_3       
     e(  8 -  8) =     26.29732  eV     1   --> A_1  L_1       
     e(  9 - 10) =     26.98894  eV     2   --> E    L_3       
     e( 11 - 11) =     32.70009  eV     1   --> A_1  L_1       
     e( 12 - 12) =     39.00447  eV     1   --> A_1  L_1       

 **************************************************************************

 **************************************************************************

                    xk=(   0.17678,  -0.17678,   0.17678  )

     Band symmetry, C_3v (3m)   point group:

     e(  1 -  1) =     -1.56517  eV     1   --> A_1  L_1       
     e(  2 -  2) =     11.35894  eV     1   --> A_1  L_1       
     e(  3 -  4) =     18.77709  eV     2   --> E    L_3       
     e(  5 -  5) =     22.15064  eV     1   --> A_1  L_1       
     e(  6 -  7) =     22.58019  eV     2   --> E    L_3       
     e(  8 -  8) =     26.52067  eV     1   --> A_1  L_1       
     e(  9 - 10) =     26.67340  eV     2   --> E    L_3       
     e( 11 - 11) =     32.28077  eV     1   --> A_1  L_1       
     e( 12 - 12) =     38.42539  eV     1   --> A_1  L_1       

 **************************************************************************

 **************************************************************************

                    xk=(   0.16794,  -0.16794,   0.16794  )

     Band symmetry, C_3v (3m)   point group:

     e(  1 -  1) =     -1.72953  eV     1   --> A_1  L_1       
     e(  2 -  2) =     11.82349  eV     1   --> A_1  L_1       
     e(  3 -  4) =     18.82465  eV     2   --> E    L_3       
     e(  5 -  5) =     22.17504  eV     1   --> A_1  L_1       
     e(  6 -  7) =     22.80002  eV     2   --> E    L_3       
     e(  8 -  9) =     26.36860  eV     2   --> E    L_3       
     e( 10 - 10) =     26.74628  eV     1   --> A_1  L_1       
     e( 11 - 11) =     31.85594  eV     1   --> A_1  L_1       
     e( 12 - 12) =     37.86290  eV     1   --> A_1  L_1       

 **************************************************************************

 **************************************************************************

                    xk=(   0.15910,  -0.15910,   0.15910  )

     Band symmetry, C_3v (3m)   point group:

     e(  1 -  1) =     -1.88561  eV     1   --> A_1  L_1       
     e(  2 -  2) =     12.29355  eV     1   --> A_1  L_1       
     e(  3 -  4) =     18.87901  eV     2   --> E    L_3       
     e(  5 -  5) =     22.20380  eV     1   --> A_1  L_1       
     e(  6 -  7) =     23.01896  eV     2   --> E    L_3       
     e(  8 -  9) =     26.07708  eV     2   --> E    L_3       
     e( 10 - 10) =     26.97350  eV     1   --> A_1  L_1       
     e( 11 - 11) =     31.42508  eV     1   --> A_1  L_1       
     e( 12 - 12) =     37.31900  eV     1   --> A_1  L_1       

 **************************************************************************

 **************************************************************************

                    xk=(   0.15026,  -0.15026,   0.15026  )

     Band symmetry, C_3v (3m)   point group:

     e(  1 -  1) =     -2.03339  eV     1   --> A_1  L_1       
     e(  2 -  2) =     12.76892  eV     1   --> A_1  L_1       
     e(  3 -  4) =     18.94013  eV     2   --> E    L_3       
     e(  5 -  5) =     22.23636  eV     1   --> A_1  L_1       
     e(  6 -  7) =     23.23276  eV     2   --> E    L_3       
     e(  8 -  9) =     25.80300  eV     2   --> E    L_3       
     e( 10 - 10) =     27.20156  eV     1   --> A_1  L_1       
     e( 11 - 11) =     30.98769  eV     1   --> A_1  L_1       
     e( 12 - 12) =     36.79569  eV     1   --> A_1  L_1       

 **************************************************************************

 **************************************************************************

                    xk=(   0.14142,  -0.14142,   0.14142  )

     Band symmetry, C_3v (3m)   point group:

     e(  1 -  1) =     -2.17284  eV     1   --> A_1  L_1       
     e(  2 -  2) =     13.24936  eV     1   --> A_1  L_1       
     e(  3 -  4) =     19.00792  eV     2   --> E    L_3       
     e(  5 -  5) =     22.27211  eV     1   --> A_1  L_1       
     e(  6 -  7) =     23.43380  eV     2   --> E    L_3       
     e(  8 -  9) =     25.55385  eV     2   --> E    L_3       
     e( 10 - 10) =     27.42958  eV     1   --> A_1  L_1       
     e( 11 - 11) =     30.54338  eV     1   --> A_1  L_1       
     e( 12 - 12) =     36.29496  eV     1   --> A_1  L_1       

 **************************************************************************

 **************************************************************************

                    xk=(   0.13258,  -0.13258,   0.13258  )

     Band symmetry, C_3v (3m)   point group:

     e(  1 -  1) =     -2.30395  eV     1   --> A_1  L_1       
     e(  2 -  2) =     13.73459  eV     1   --> A_1  L_1       
     e(  3 -  4) =     19.08231  eV     2   --> E    L_3       
     e(  5 -  5) =     22.31031  eV     1   --> A_1  L_1       
     e(  6 -  7) =     23.60787  eV     2   --> E    L_3       
     e(  8 -  9) =     25.34360  eV     2   --> E    L_3       
     e( 10 - 10) =     27.65658  eV     1   --> A_1  L_1       
     e( 11 - 11) =     30.09192  eV     1   --> A_1  L_1       
     e( 12 - 12) =     35.81875  eV     1   --> A_1  L_1       

 **************************************************************************

 **************************************************************************

                    xk=(   0.12374,  -0.12374,   0.12374  )

     Band symmetry, C_3v (3m)   point group:

     e(  1 -  1) =     -2.42669  eV     1   --> A_1  L_1       
     e(  2 -  2) =     14.22431  eV     1   --> A_1  L_1       
     e(  3 -  4) =     19.16318  eV     2   --> E    L_3       
     e(  5 -  5) =     22.35011  eV     1   --> A_1  L_1       
     e(  6 -  7) =     23.72976  eV     2   --> E    L_3       
     e(  8 -  9) =     25.19711  eV     2   --> E    L_3       
     e( 10 - 10) =     27.88135  eV     1   --> A_1  L_1       
     e( 11 - 11) =     29.63338  eV     1   --> A_1  L_1       
     e( 12 - 12) =     35.36887  eV     1   --> A_1  L_1       

 **************************************************************************

 **************************************************************************

                    xk=(   0.11490,  -0.11490,   0.11490  )

     Band symmetry, C_3v (3m)   point group:

     e(  1 -  1) =     -2.54105  eV     1   --> A_1  L_1       
     e(  2 -  2) =     14.71812  eV     1   --> A_1  L_1       
     e(  3 -  4) =     19.25040  eV     2   --> E    L_3       
     e(  5 -  5) =     22.39051  eV     1   --> A_1  L_1       
     e(  6 -  7) =     23.76661  eV     2   --> E    L_3       
     e(  8 -  9) =     25.14676  eV     2   --> E    L_3       
     e( 10 - 10) =     28.10241  eV     1   --> A_1  L_1       
     e( 11 - 11) =     29.16833  eV     1   --> A_1  L_1       
     e( 12 - 12) =     34.94698  eV     1   --> A_1  L_1       

 **************************************************************************

 **************************************************************************

                    xk=(   0.10607,  -0.10607,   0.10607  )

     Band symmetry, C_3v (3m)   point group:

     e(  1 -  1) =     -2.64700  eV     1   --> A_1  L_1       
     e(  2 -  2) =     15.21558  eV     1   --> A_1  L_1       
     e(  3 -  4) =     19.34377  eV     2   --> E    L_3       
     e(  5 -  5) =     22.43027  eV     1   --> A_1  L_1       
     e(  6 -  7) =     23.70470  eV     2   --> E    L_3       
     e(  8 -  9) =     25.20565  eV     2   --> E    L_3       
     e( 10 - 10) =     28.31671  eV     1   --> A_1  L_1       
     e( 11 - 11) =     28.69914  eV     1   --> A_1  L_1       
     e( 12 - 12) =     34.55457  eV     1   --> A_1  L_1       

 **************************************************************************

 **************************************************************************

                    xk=(   0.09723,  -0.09723,   0.09723  )

     Band symmetry, C_3v (3m)   point group:

     e(  1 -  1) =     -2.74454  eV     1   --> A_1  L_1       
     e(  2 -  2) =     15.71611  eV     1   --> A_1  L_1       
     e(  3 -  4) =     19.44306  eV     2   --> E    L_3       
     e(  5 -  5) =     22.46791  eV     1   --> A_1  L_1       
     e(  6 -  7) =     23.56732  eV     2   --> E    L_3       
     e(  8 -  9) =     25.34967  eV     2   --> E    L_3       
     e( 10 - 10) =     28.21489  eV     1   --> A_1  L_1       
     e( 11 - 11) =     28.53485  eV     1   --> A_1  L_1       
     e( 12 - 12) =     34.19292  eV     1   --> A_1  L_1       

 **************************************************************************

 **************************************************************************

                    xk=(   0.08839,  -0.08839,   0.08839  )

     Band symmetry, C_3v (3m)   point group:

     e(  1 -  1) =     -2.83365  eV     1   --> A_1  L_1       
     e(  2 -  2) =     16.21902  eV     1   --> A_1  L_1       
     e(  3 -  4) =     19.54794  eV     2   --> E    L_3       
     e(  5 -  5) =     22.50155  eV     1   --> A_1  L_1       
     e(  6 -  7) =     23.38804  eV     2   --> E    L_3       
     e(  8 -  9) =     25.54419  eV     2   --> E    L_3       
     e( 10 - 10) =     27.73918  eV     1   --> A_1  L_1       
     e( 11 - 11) =     28.73335  eV     1   --> A_1  L_1       
     e( 12 - 12) =     33.86313  eV     1   --> A_1  L_1       

 **************************************************************************

 **************************************************************************

                    xk=(   0.07955,  -0.07955,   0.07955  )

     Band symmetry, C_3v (3m)   point group:

     e(  1 -  1) =     -2.91430  eV     1   --> A_1  L_1       
     e(  2 -  2) =     16.72340  eV     1   --> A_1  L_1       
     e(  3 -  4) =     19.65796  eV     2   --> E    L_3       
     e(  5 -  5) =     22.52878  eV     1   --> A_1  L_1       
     e(  6 -  7) =     23.18969  eV     2   --> E    L_3       
     e(  8 -  9) =     25.76501  eV     2   --> E    L_3       
     e( 10 - 10) =     27.26142  eV     1   --> A_1  L_1       
     e( 11 - 11) =     28.92364  eV     1   --> A_1  L_1       
     e( 12 - 12) =     33.56609  eV     1   --> A_1  L_1       

 **************************************************************************

 **************************************************************************

                    xk=(   0.07071,  -0.07071,   0.07071  )

     Band symmetry, C_3v (3m)   point group:

     e(  1 -  1) =     -2.98651  eV     1   --> A_1  L_1       
     e(  2 -  2) =     17.22806  eV     1   --> A_1  L_1       
     e(  3 -  4) =     19.77249  eV     2   --> E    L_3       
     e(  5 -  5) =     22.54640  eV     1   --> A_1  L_1       
     e(  6 -  7) =     22.98498  eV     2   --> E    L_3       
     e(  8 -  9) =     25.99767  eV     2   --> E    L_3       
     e( 10 - 10) =     26.78784  eV     1   --> A_1  L_1       
     e( 11 - 11) =     29.10126  eV     1   --> A_1  L_1       
     e( 12 - 12) =     33.30251  eV     1   --> A_1  L_1       

 **************************************************************************

 **************************************************************************

                    xk=(   0.06187,  -0.06187,   0.06187  )

     Band symmetry, C_3v (3m)   point group:

     e(  1 -  1) =     -3.05024  eV     1   --> A_1  L_1       
     e(  2 -  2) =     17.73135  eV     1   --> A_1  L_1       
     e(  3 -  4) =     19.89060  eV     2   --> E    L_3       
     e(  5 -  5) =     22.55002  eV     1   --> A_1  L_1       
     e(  6 -  7) =     22.78118  eV     2   --> E    L_3       
     e(  8 -  9) =     26.23270  eV     2   --> E    L_3       
     e( 10 - 10) =     26.32446  eV     1   --> A_1  L_1       
     e( 11 - 11) =     29.26359  eV     1   --> A_1  L_1       
     e( 12 - 12) =     33.07284  eV     1   --> A_1  L_1       

 **************************************************************************

 **************************************************************************

                    xk=(   0.05303,  -0.05303,   0.05303  )

     Band symmetry, C_3v (3m)   point group:

     e(  1 -  1) =     -3.10549  eV     1   --> A_1  L_1       
     e(  2 -  2) =     18.23097  eV     1   --> A_1  L_1       
     e(  3 -  4) =     20.01093  eV     2   --> E    L_3       
     e(  5 -  5) =     22.53354  eV     1   --> A_1  L_1       
     e(  6 -  7) =     22.58317  eV     2   --> E    L_3       
     e(  8 -  8) =     25.87959  eV     1   --> A_1  L_1       
     e(  9 - 10) =     26.46252  eV     2   --> E    L_3       
     e( 11 - 11) =     29.40818  eV     1   --> A_1  L_1       
     e( 12 - 12) =     32.87724  eV     1   --> A_1  L_1       

 **************************************************************************

 **************************************************************************

                    xk=(   0.04419,  -0.04419,   0.04419  )

     Band symmetry, C_3v (3m)   point group:

     e(  1 -  1) =     -3.15226  eV     1   --> A_1  L_1       
     e(  2 -  2) =     18.72343  eV     1   --> A_1  L_1       
     e(  3 -  4) =     20.13136  eV     2   --> E    L_3       
     e(  5 -  6) =     22.39505  eV     2   --> E    L_3       
     e(  7 -  7) =     22.48867  eV     1   --> A_1  L_1       
     e(  8 -  8) =     25.46483  eV     1   --> A_1  L_1       
     e(  9 - 10) =     26.67986  eV     2   --> E    L_3       
     e( 11 - 11) =     29.53285  eV     1   --> A_1  L_1       
     e( 12 - 12) =     32.71541  eV     1   --> A_1  L_1       

 **************************************************************************

 **************************************************************************

                    xk=(   0.03536,  -0.03536,   0.03536  )

     Band symmetry, C_3v (3m)   point group:

     e(  1 -  1) =     -3.19053  eV     1   --> A_1  L_1       
     e(  2 -  2) =     19.20312  eV     1   --> A_1  L_1       
     e(  3 -  4) =     20.24857  eV     2   --> E    L_3       
     e(  5 -  6) =     22.22136  eV     2   --> E    L_3       
     e(  7 -  7) =     22.40527  eV     1   --> A_1  L_1       
     e(  8 -  8) =     25.09575  eV     1   --> A_1  L_1       
     e(  9 - 10) =     26.87687  eV     2   --> E    L_3       
     e( 11 - 11) =     29.63590  eV     1   --> A_1  L_1       
     e( 12 - 12) =     32.58654  eV     1   --> A_1  L_1       

 **************************************************************************

 **************************************************************************

                    xk=(   0.02652,  -0.02652,   0.02652  )

     Band symmetry, C_3v (3m)   point group:

     e(  1 -  1) =     -3.22031  eV     1   --> A_1  L_1       
     e(  2 -  2) =     19.66015  eV     1   --> A_1  L_1       
     e(  3 -  4) =     20.35725  eV     2   --> E    L_3       
     e(  5 -  6) =     22.06816  eV     2   --> E    L_3       
     e(  7 -  7) =     22.27474  eV     1   --> A_1  L_1       
     e(  8 -  8) =     24.79067  eV     1   --> A_1  L_1       
     e(  9 - 10) =     27.04478  eV     2   --> E    L_3       
     e( 11 - 11) =     29.71625  eV     1   --> A_1  L_1       
     e( 12 - 12) =     32.48927  eV     1   --> A_1  L_1       

 **************************************************************************

 **************************************************************************

                    xk=(   0.01768,  -0.01768,   0.01768  )

     Band symmetry, C_3v (3m)   point group:

     e(  1 -  1) =     -3.24158  eV     1   --> A_1  L_1       
     e(  2 -  2) =     20.07455  eV     1   --> A_1  L_1       
     e(  3 -  4) =     20.44914  eV     2   --> E    L_3       
     e(  5 -  6) =     21.94420  eV     2   --> E    L_3       
     e(  7 -  7) =     22.10042  eV     1   --> A_1  L_1       
     e(  8 -  8) =     24.56603  eV     1   --> A_1  L_1       
     e(  9 - 10) =     27.17424  eV     2   --> E    L_3       
     e( 11 - 11) =     29.77345  eV     1   --> A_1  L_1       
     e( 12 - 12) =     32.42179  eV     1   --> A_1  L_1       

 **************************************************************************

 **************************************************************************

                    xk=(   0.00884,  -0.00884,   0.00884  )

     Band symmetry, C_3v (3m)   point group:

     e(  1 -  1) =     -3.25434  eV     1   --> A_1  L_1       
     e(  2 -  2) =     20.40000  eV     1   --> A_1  L_1       
     e(  3 -  4) =     20.51266  eV     2   --> E    L_3       
     e(  5 -  6) =     21.86134  eV     2   --> E    L_3       
     e(  7 -  7) =     21.91959  eV     1   --> A_1  L_1       
     e(  8 -  8) =     24.43074  eV     1   --> A_1  L_1       
     e(  9 - 10) =     27.25637  eV     2   --> E    L_3       
     e( 11 - 11) =     29.80760  eV     1   --> A_1  L_1       
     e( 12 - 12) =     32.38225  eV     1   --> A_1  L_1       

 **************************************************************************

 **************************************************************************

                    xk=(   0.00000,   0.00000,   0.00000  )

     point group O_h (m-3m) 
     there are 10 classes
     the character table:

       E     8C3   3C2   6C4   6C2'  i     8S6   3s_h  6S4   6s_d 
A_1g   1.00  1.00  1.00  1.00  1.00  1.00  1.00  1.00  1.00  1.00
A_2g   1.00  1.00  1.00 -1.00 -1.00  1.00  1.00  1.00 -1.00 -1.00
E_g    2.00 -1.00  2.00  0.00  0.00  2.00 -1.00  2.00  0.00  0.00
T_1g   3.00  0.00 -1.00  1.00 -1.00  3.00  0.00 -1.00  1.00 -1.00
T_2g   3.00  0.00 -1.00 -1.00  1.00  3.00  0.00 -1.00 -1.00  1.00
A_1u   1.00  1.00  1.00  1.00  1.00 -1.00 -1.00 -1.00 -1.00 -1.00
A_2u   1.00  1.00  1.00 -1.00 -1.00 -1.00 -1.00 -1.00  1.00  1.00
E_u    2.00 -1.00  2.00  0.00  0.00 -2.00  1.00 -2.00  0.00  0.00
T_1u   3.00  0.00 -1.00  1.00 -1.00 -3.00  0.00  1.00 -1.00  1.00
T_2u   3.00  0.00 -1.00 -1.00  1.00 -3.00  0.00  1.00  1.00 -1.00

     the symmetry operations in each class and the name of the first element:

     E        1
                                                                 
     8C3     17   19   20   18   24   21   22   23
                                                                 
     3C2      2    4    3
                                                                 
     6C4      7    8   15   16   12   11
                                                                 
     6C2'     5    6   14   13   10    9
                                                                 
     i       25
                                                                 
     8S6     41   43   44   42   48   45   46   47
                                                                 
     3s_h    26   28   27
                                                                 
     6S4     31   32   39   40   36   35
                                                                 
     6s_d    29   30   38   37   34   33
                                                                 

     Band symmetry, O_h (m-3m)  point group:

     e(  1 -  1) =     -3.25860  eV     1   --> A_1g G_1   G_1+
     e(  2 -  4) =     20.53569  eV     3   --> T_2g G_25' G_5+
     e(  5 -  7) =     21.83184  eV     3   --> T_1u G_15  G_4-
     e(  8 -  8) =     24.38591  eV     1   --> A_2u G_2'  G_2-
     e(  9 - 10) =     27.28457  eV     2   --> E_g  G_12  G_3+
     e( 11 - 11) =     29.81893  eV     1   --> A_1g G_1   G_1+
     e( 12 - 12) =     32.36924  eV     1   -->   ?

 **************************************************************************

 **************************************************************************

                    xk=(   0.00000,  -0.01179,   0.00000  )

     point group C_4v (4mm) 
     there are  5 classes
     the character table:

       E     2C4   C2    2s_v  2s_d 
A_1    1.00  1.00  1.00  1.00  1.00
A_2    1.00  1.00  1.00 -1.00 -1.00
B_1    1.00 -1.00  1.00  1.00 -1.00
B_2    1.00 -1.00  1.00 -1.00  1.00
E      2.00  0.00 -2.00  0.00  0.00

     the symmetry operations in each class and the name of the first element:

     E        1
                                                                 
     2C4      3    4
                                                                 
     C2       2
                                                                 
     2s_v     5    6
                                                                 
     2s_d     7    8
                                                                 

     Band symmetry, C_4v (4mm)  point group:

     e(  1 -  1) =     -3.25607  eV     1   --> A_1  G_1 D_1   
     e(  2 -  3) =     20.49062  eV     2   --> E    G_5 D_5   
     e(  4 -  4) =     20.51440  eV     1   --> B_2  G_4 D_2'  
     e(  5 -  5) =     21.82552  eV     1   --> A_1  G_1 D_1   
     e(  6 -  7) =     21.88045  eV     2   --> E    G_5 D_5   
     e(  8 -  8) =     24.41226  eV     1   --> B_2  G_4 D_2'  
     e(  9 -  9) =     27.24868  eV     1   --> A_1  G_1 D_1   
     e( 10 - 10) =     27.28689  eV     1   --> B_1  G_3 D_2   
     e( 11 - 11) =     29.81271  eV     1   --> A_1  G_1 D_1   
     e( 12 - 12) =     32.37222  eV     1   -->   ?

 **************************************************************************

 **************************************************************************

                    xk=(   0.00000,  -0.02357,   0.00000  )

     Band symmetry, C_4v (4mm)  point group:

     e(  1 -  1) =     -3.24851  eV     1   --> A_1  G_1 D_1   
     e(  2 -  3) =     20.37136  eV     2   --> E    G_5 D_5   
     e(  4 -  4) =     20.45224  eV     1   --> B_2  G_4 D_2'  
     e(  5 -  5) =     21.80666  eV     1   --> A_1  G_1 D_1   
     e(  6 -  7) =     22.01032  eV     2   --> E    G_5 D_5   
     e(  8 -  8) =     24.48960  eV     1   --> B_2  G_4 D_2'  
     e(  9 -  9) =     27.14242  eV     1   --> A_1  G_1 D_1   
     e( 10 - 10) =     27.29387  eV     1   --> B_1  G_3 D_2   
     e( 11 - 11) =     29.79906  eV     1   --> A_1  G_1 D_1   
     e( 12 - 12) =     32.38115  eV     1   -->   ?

 **************************************************************************

 **************************************************************************

                    xk=(   0.00000,  -0.03536,   0.00000  )

     Band symmetry, C_4v (4mm)  point group:

     e(  1 -  1) =     -3.23590  eV     1   --> A_1  G_1 D_1   
     e(  2 -  3) =     20.20686  eV     2   --> E    G_5 D_5   
     e(  4 -  4) =     20.35371  eV     1   --> B_2  G_4 D_2'  
     e(  5 -  5) =     21.77552  eV     1   --> A_1  G_1 D_1   
     e(  6 -  7) =     22.19250  eV     2   --> E    G_5 D_5   
     e(  8 -  8) =     24.61343  eV     1   --> B_2  G_4 D_2'  
     e(  9 -  9) =     26.97019  eV     1   --> A_1  G_1 D_1   
     e( 10 - 10) =     27.30549  eV     1   --> B_1  G_3 D_2   
     e( 11 - 11) =     29.78925  eV     1   --> A_1  G_1 D_1   
     e( 12 - 12) =     32.39605  eV     1   -->   ?

 **************************************************************************

 **************************************************************************

                    xk=(   0.00000,  -0.04714,   0.00000  )

     Band symmetry, C_4v (4mm)  point group:

     e(  1 -  1) =     -3.21826  eV     1   --> A_1  G_1 D_1   
     e(  2 -  3) =     20.01830  eV     2   --> E    G_5 D_5   
     e(  4 -  4) =     20.22486  eV     1   --> B_2  G_4 D_2'  
     e(  5 -  5) =     21.73254  eV     1   --> A_1  G_1 D_1   
     e(  6 -  7) =     22.40575  eV     2   --> E    G_5 D_5   
     e(  8 -  8) =     24.77768  eV     1   --> B_2  G_4 D_2'  
     e(  9 -  9) =     26.73938  eV     1   --> A_1  G_1 D_1   
     e( 10 - 10) =     27.32177  eV     1   --> B_1  G_3 D_2   
     e( 11 - 11) =     29.79365  eV     1   --> A_1  G_1 D_1   
     e( 12 - 12) =     32.41696  eV     1   -->   ?

 **************************************************************************

 **************************************************************************

                    xk=(   0.00000,  -0.05893,   0.00000  )

     Band symmetry, C_4v (4mm)  point group:

     e(  1 -  1) =     -3.19557  eV     1   --> A_1  G_1 D_1   
     e(  2 -  3) =     19.81760  eV     2   --> E    G_5 D_5   
     e(  4 -  4) =     20.07204  eV     1   --> B_2  G_4 D_2'  
     e(  5 -  5) =     21.67830  eV     1   --> A_1  G_1 D_1   
     e(  6 -  7) =     22.63811  eV     2   --> E    G_5 D_5   
     e(  8 -  8) =     24.97603  eV     1   --> B_2  G_4 D_2'  
     e(  9 -  9) =     26.45935  eV     1   --> A_1  G_1 D_1   
     e( 10 - 10) =     27.34268  eV     1   --> B_1  G_3 D_2   
     e( 11 - 11) =     29.81817  eV     1   --> A_1  G_1 D_1   
     e( 12 - 12) =     32.44392  eV     1   -->   ?

 **************************************************************************

 **************************************************************************

                    xk=(   0.00000,  -0.07071,   0.00000  )

     Band symmetry, C_4v (4mm)  point group:

     e(  1 -  1) =     -3.16785  eV     1   --> A_1  G_1 D_1   
     e(  2 -  3) =     19.61111  eV     2   --> E    G_5 D_5   
     e(  4 -  4) =     19.90101  eV     1   --> B_2  G_4 D_2'  
     e(  5 -  5) =     21.61348  eV     1   --> A_1  G_1 D_1   
     e(  6 -  7) =     22.88316  eV     2   --> E    G_5 D_5   
     e(  8 -  8) =     25.20270  eV     1   --> B_2  G_4 D_2'  
     e(  9 -  9) =     26.13989  eV     1   --> A_1  G_1 D_1   
     e( 10 - 10) =     27.36823  eV     1   --> B_1  G_3 D_2   
     e( 11 - 11) =     29.86452  eV     1   --> A_1  G_1 D_1   
     e( 12 - 12) =     32.47701  eV     1   -->   ?

 **************************************************************************

 **************************************************************************

                    xk=(   0.00000,  -0.08250,   0.00000  )

     Band symmetry, C_4v (4mm)  point group:

     e(  1 -  1) =     -3.13509  eV     1   --> A_1  G_1 D_1   
     e(  2 -  3) =     19.40239  eV     2   --> E    G_5 D_5   
     e(  4 -  4) =     19.71660  eV     1   --> B_2  G_4 D_2'  
     e(  5 -  5) =     21.53886  eV     1   --> A_1  G_1 D_1   
     e(  6 -  7) =     23.13725  eV     2   --> E    G_5 D_5   
     e(  8 -  8) =     25.45287  eV     1   --> B_2  G_4 D_2'  
     e(  9 -  9) =     25.78986  eV     1   --> A_1  G_1 D_1   
     e( 10 - 10) =     27.39841  eV     1   --> B_1  G_3 D_2   
     e( 11 - 11) =     29.93194  eV     1   --> A_1  G_1 D_1   
     e( 12 - 12) =     32.51629  eV     1   -->   ?

 **************************************************************************

 **************************************************************************

                    xk=(   0.00000,  -0.09428,   0.00000  )

     Band symmetry, C_4v (4mm)  point group:

     e(  1 -  1) =     -3.09731  eV     1   --> A_1  G_1 D_1   
     e(  2 -  3) =     19.19350  eV     2   --> E    G_5 D_5   
     e(  4 -  4) =     19.52268  eV     1   --> B_2  G_4 D_2'  
     e(  5 -  5) =     21.45526  eV     1   --> A_1  G_1 D_1   
     e(  6 -  7) =     23.39824  eV     2   --> E    G_5 D_5   
     e(  8 -  8) =     25.41663  eV     1   --> A_1  G_1 D_1   
     e(  9 -  9) =     25.72265  eV     1   --> B_2  G_4 D_2'  
     e( 10 - 10) =     27.43321  eV     1   --> B_1  G_3 D_2   
     e( 11 - 11) =     30.01863  eV     1   --> A_1  G_1 D_1   
     e( 12 - 12) =     32.56185  eV     1   -->   ?

 **************************************************************************

 **************************************************************************

                    xk=(   0.00000,  -0.10607,   0.00000  )

     Band symmetry, C_4v (4mm)  point group:

     e(  1 -  1) =     -3.05449  eV     1   --> A_1  G_1 D_1   
     e(  2 -  3) =     18.98571  eV     2   --> E    G_5 D_5   
     e(  4 -  4) =     19.32229  eV     1   --> B_2  G_4 D_2'  
     e(  5 -  5) =     21.36352  eV     1   --> A_1  G_1 D_1   
     e(  6 -  7) =     23.66472  eV     2   --> E    G_5 D_5   
     e(  8 -  8) =     25.02603  eV     1   --> A_1  G_1 D_1   
     e(  9 -  9) =     26.00902  eV     1   --> B_2  G_4 D_2'  
     e( 10 - 10) =     27.47263  eV     1   --> B_1  G_3 D_2   
     e( 11 - 11) =     30.12257  eV     1   --> A_1  G_1 D_1   
     e( 12 - 12) =     32.61382  eV     1   -->   ?

 **************************************************************************

 **************************************************************************

                    xk=(   0.00000,  -0.11785,   0.00000  )

     Band symmetry, C_4v (4mm)  point group:

     e(  1 -  1) =     -3.00665  eV     1   --> A_1  G_1 D_1   
     e(  2 -  3) =     18.77985  eV     2   --> E    G_5 D_5   
     e(  4 -  4) =     19.11777  eV     1   --> B_2  G_4 D_2'  
     e(  5 -  5) =     21.26450  eV     1   --> A_1  G_1 D_1   
     e(  6 -  7) =     23.93573  eV     2   --> E    G_5 D_5   
     e(  8 -  8) =     24.62254  eV     1   --> A_1  G_1 D_1   
     e(  9 -  9) =     26.30963  eV     1   --> B_2  G_4 D_2'  
     e( 10 - 10) =     27.51665  eV     1   --> B_1  G_3 D_2   
     e( 11 - 11) =     30.24181  eV     1   --> A_1  G_1 D_1   
     e( 12 - 12) =     32.67230  eV     1   -->   ?

 **************************************************************************

 **************************************************************************

                    xk=(   0.00000,  -0.12964,   0.00000  )

     Band symmetry, C_4v (4mm)  point group:

     e(  1 -  1) =     -2.95379  eV     1   --> A_1  G_1 D_1   
     e(  2 -  3) =     18.57649  eV     2   --> E    G_5 D_5   
     e(  4 -  4) =     18.91092  eV     1   --> B_2  G_4 D_2'  
     e(  5 -  5) =     21.15903  eV     1   --> A_1  G_1 D_1   
     e(  6 -  6) =     24.20959  eV     1   --> A_1  G_1 D_1   
     e(  7 -  8) =     24.21055  eV     2   --> E    G_5 D_5   
     e(  9 -  9) =     26.62268  eV     1   --> B_2  G_4 D_2'  
     e( 10 - 10) =     27.56526  eV     1   --> B_1  G_3 D_2   
     e( 11 - 11) =     30.37465  eV     1   --> A_1  G_1 D_1   
     e( 12 - 12) =     32.73745  eV     1   -->   ?

 **************************************************************************

 **************************************************************************

                    xk=(   0.00000,  -0.14142,   0.00000  )

     Band symmetry, C_4v (4mm)  point group:

     e(  1 -  1) =     -2.89591  eV     1   --> A_1  G_1 D_1   
     e(  2 -  3) =     18.37600  eV     2   --> E    G_5 D_5   
     e(  4 -  4) =     18.70313  eV     1   --> B_2  G_4 D_2'  
     e(  5 -  5) =     21.04791  eV     1   --> A_1  G_1 D_1   
     e(  6 -  6) =     23.78981  eV     1   --> A_1  G_1 D_1   
     e(  7 -  8) =     24.48864  eV     2   --> E    G_5 D_5   
     e(  9 -  9) =     26.94677  eV     1   --> B_2  G_4 D_2'  
     e( 10 - 10) =     27.61846  eV     1   --> B_1  G_3 D_2   
     e( 11 - 11) =     30.51960  eV     1   --> A_1  G_1 D_1   
     e( 12 - 12) =     32.80943  eV     1   -->   ?

 **************************************************************************

 **************************************************************************

                    xk=(   0.00000,  -0.15321,   0.00000  )

     Band symmetry, C_4v (4mm)  point group:

     e(  1 -  1) =     -2.83302  eV     1   --> A_1  G_1 D_1   
     e(  2 -  3) =     18.17867  eV     2   --> E    G_5 D_5   
     e(  4 -  4) =     18.49550  eV     1   --> B_2  G_4 D_2'  
     e(  5 -  5) =     20.93188  eV     1   --> A_1  G_1 D_1   
     e(  6 -  6) =     23.36523  eV     1   --> A_1  G_1 D_1   
     e(  7 -  8) =     24.76949  eV     2   --> E    G_5 D_5   
     e(  9 -  9) =     27.28080  eV     1   --> B_2  G_4 D_2'  
     e( 10 - 10) =     27.67621  eV     1   --> B_1  G_3 D_2   
     e( 11 - 11) =     30.67541  eV     1   --> A_1  G_1 D_1   
     e( 12 - 12) =     32.88841  eV     1   -->   ?

 **************************************************************************

 **************************************************************************

                    xk=(   0.00000,  -0.16499,   0.00000  )

     Band symmetry, C_4v (4mm)  point group:

     e(  1 -  1) =     -2.76513  eV     1   --> A_1  G_1 D_1   
     e(  2 -  3) =     17.98472  eV     2   --> E    G_5 D_5   
     e(  4 -  4) =     18.28887  eV     1   --> B_2  G_4 D_2'  
     e(  5 -  5) =     20.81163  eV     1   --> A_1  G_1 D_1   
     e(  6 -  6) =     22.93747  eV     1   --> A_1  G_1 D_1   
     e(  7 -  8) =     25.05269  eV     2   --> E    G_5 D_5   
     e(  9 -  9) =     27.62393  eV     1   --> B_2  G_4 D_2'  
     e( 10 - 10) =     27.73851  eV     1   --> B_1  G_3 D_2   
     e( 11 - 11) =     30.84096  eV     1   --> A_1  G_1 D_1   
     e( 12 - 12) =     32.97461  eV     1   -->   ?

 **************************************************************************

 **************************************************************************

                    xk=(   0.00000,  -0.17678,   0.00000  )

     Band symmetry, C_4v (4mm)  point group:

     e(  1 -  1) =     -2.69224  eV     1   --> A_1  G_1 D_1   
     e(  2 -  3) =     17.79430  eV     2   --> E    G_5 D_5   
     e(  4 -  4) =     18.08393  eV     1   --> B_2  G_4 D_2'  
     e(  5 -  5) =     20.68775  eV     1   --> A_1  G_1 D_1   
     e(  6 -  6) =     22.50781  eV     1   --> A_1  G_1 D_1   
     e(  7 -  8) =     25.33782  eV     2   --> E    G_5 D_5   
     e(  9 -  9) =     27.80533  eV     1   --> B_1  G_3 D_2   
     e( 10 - 10) =     27.97549  eV     1   --> B_2  G_4 D_2'  
     e( 11 - 11) =     31.01531  eV     1   --> A_1  G_1 D_1   
     e( 12 - 12) =     33.06823  eV     1   -->   ?

 **************************************************************************

 **************************************************************************

                    xk=(   0.00000,  -0.18856,   0.00000  )

     Band symmetry, C_4v (4mm)  point group:

     e(  1 -  1) =     -2.61436  eV     1   --> A_1  G_1 D_1   
     e(  2 -  3) =     17.60754  eV     2   --> E    G_5 D_5   
     e(  4 -  4) =     17.88120  eV     1   --> B_2  G_4 D_2'  
     e(  5 -  5) =     20.56074  eV     1   --> A_1  G_1 D_1   
     e(  6 -  6) =     22.07738  eV     1   --> A_1  G_1 D_1   
     e(  7 -  8) =     25.62450  eV     2   --> E    G_5 D_5   
     e(  9 -  9) =     27.87667  eV     1   --> B_1  G_3 D_2   
     e( 10 - 10) =     28.33491  eV     1   --> B_2  G_4 D_2'  
     e( 11 - 11) =     31.19764  eV     1   --> A_1  G_1 D_1   
     e( 12 - 12) =     33.16953  eV     1   -->   ?

 **************************************************************************

 **************************************************************************

                    xk=(   0.00000,  -0.20035,   0.00000  )

     Band symmetry, C_4v (4mm)  point group:

     e(  1 -  1) =     -2.53150  eV     1   --> A_1  G_1 D_1   
     e(  2 -  3) =     17.42454  eV     2   --> E    G_5 D_5   
     e(  4 -  4) =     17.68113  eV     1   --> B_2  G_4 D_2'  
     e(  5 -  5) =     20.43088  eV     1   --> A_1  G_1 D_1   
     e(  6 -  6) =     21.64726  eV     1   --> A_1  G_1 D_1   
     e(  7 -  8) =     25.91234  eV     2   --> E    G_5 D_5   
     e(  9 -  9) =     27.95248  eV     1   --> B_1  G_3 D_2   
     e( 10 - 10) =     28.70177  eV     1   --> B_2  G_4 D_2'  
     e( 11 - 11) =     31.38724  eV     1   --> A_1  G_1 D_1   
     e( 12 - 12) =     33.27876  eV     1   -->   ?

 **************************************************************************

 **************************************************************************

                    xk=(   0.00000,  -0.21213,   0.00000  )

     Band symmetry, C_4v (4mm)  point group:

     e(  1 -  1) =     -2.44366  eV     1   --> A_1  G_1 D_1   
     e(  2 -  3) =     17.24537  eV     2   --> E    G_5 D_5   
     e(  4 -  4) =     17.48405  eV     1   --> B_2  G_4 D_2'  
     e(  5 -  5) =     20.29803  eV     1   --> A_1  G_1 D_1   
     e(  6 -  6) =     21.21876  eV     1   --> A_1  G_1 D_1   
     e(  7 -  8) =     26.20094  eV     2   --> E    G_5 D_5   
     e(  9 -  9) =     28.03275  eV     1   --> B_1  G_3 D_2   
     e( 10 - 10) =     29.07572  eV     1   --> B_2  G_4 D_2'  
     e( 11 - 11) =     31.58347  eV     1   --> A_1  G_1 D_1   
     e( 12 - 12) =     33.39620  eV     1   -->   ?

 **************************************************************************

 **************************************************************************

                    xk=(   0.00000,  -0.22392,   0.00000  )

     Band symmetry, C_4v (4mm)  point group:

     e(  1 -  1) =     -2.35085  eV     1   --> A_1  G_1 D_1   
     e(  2 -  3) =     17.07010  eV     2   --> E    G_5 D_5   
     e(  4 -  4) =     17.29027  eV     1   --> B_2  G_4 D_2'  
     e(  5 -  5) =     20.16076  eV     1   --> A_1  G_1 D_1   
     e(  6 -  6) =     20.79432  eV     1   --> A_1  G_1 D_1   
     e(  7 -  8) =     26.48989  eV     2   --> E    G_5 D_5   
     e(  9 -  9) =     28.11745  eV     1   --> B_1  G_3 D_2   
     e( 10 - 10) =     29.45646  eV     1   --> B_2  G_4 D_2'  
     e( 11 - 11) =     31.78579  eV     1   --> A_1  G_1 D_1   
     e( 12 - 12) =     33.52218  eV     1   -->   ?

 **************************************************************************

 **************************************************************************

                    xk=(   0.00000,  -0.23570,   0.00000  )

     Band symmetry, C_4v (4mm)  point group:

     e(  1 -  1) =     -2.25309  eV     1   --> A_1  G_1 D_1   
     e(  2 -  3) =     16.89879  eV     2   --> E    G_5 D_5   
     e(  4 -  4) =     17.10002  eV     1   --> B_2  G_4 D_2'  
     e(  5 -  5) =     20.01173  eV     1   --> A_1  G_1 D_1   
     e(  6 -  6) =     20.38219  eV     1   --> A_1  G_1 D_1   
     e(  7 -  8) =     26.77879  eV     2   --> E    G_5 D_5   
     e(  9 -  9) =     28.20654  eV     1   --> B_1  G_3 D_2   
     e( 10 - 10) =     29.84376  eV     1   --> B_2  G_4 D_2'  
     e( 11 - 11) =     31.99371  eV     1   --> A_1  G_1 D_1   
     e( 12 - 12) =     33.65699  eV     1   -->   ?

 **************************************************************************

 **************************************************************************

                    xk=(   0.00000,  -0.24749,   0.00000  )

     Band symmetry, C_4v (4mm)  point group:

     e(  1 -  1) =     -2.15037  eV     1   --> A_1  G_1 D_1   
     e(  2 -  3) =     16.73148  eV     2   --> E    G_5 D_5   
     e(  4 -  4) =     16.91350  eV     1   --> B_2  G_4 D_2'  
     e(  5 -  5) =     19.80295  eV     1   --> A_1  G_1 D_1   
     e(  6 -  6) =     20.03110  eV     1   --> A_1  G_1 D_1   
     e(  7 -  8) =     27.06719  eV     2   --> E    G_5 D_5   
     e(  9 -  9) =     28.29999  eV     1   --> B_1  G_3 D_2   
     e( 10 - 10) =     30.23740  eV     1   --> B_2  G_4 D_2'  
     e( 11 - 11) =     32.20680  eV     1   --> A_1  G_1 D_1   
     e( 12 - 12) =     33.80098  eV     1   -->   ?

 **************************************************************************

 **************************************************************************

                    xk=(   0.00000,  -0.25927,   0.00000  )

     Band symmetry, C_4v (4mm)  point group:

     e(  1 -  1) =     -2.04271  eV     1   --> A_1  G_1 D_1   
     e(  2 -  3) =     16.56820  eV     2   --> E    G_5 D_5   
     e(  4 -  4) =     16.73086  eV     1   --> B_2  G_4 D_2'  
     e(  5 -  5) =     19.44914  eV     1   --> A_1  G_1 D_1   
     e(  6 -  6) =     19.82704  eV     1   --> A_1  G_1 D_1   
     e(  7 -  8) =     27.35466  eV     2   --> E    G_5 D_5   
     e(  9 -  9) =     28.39775  eV     1   --> B_1  G_3 D_2   
     e( 10 - 10) =     30.63722  eV     1   --> B_2  G_4 D_2'  
     e( 11 - 11) =     32.42468  eV     1   --> A_1  G_1 D_1   
     e( 12 - 12) =     33.95449  eV     1   -->   ?

 **************************************************************************

 **************************************************************************

                    xk=(   0.00000,  -0.27106,   0.00000  )

     Band symmetry, C_4v (4mm)  point group:

     e(  1 -  1) =     -1.93013  eV     1   --> A_1  G_1 D_1   
     e(  2 -  3) =     16.40899  eV     2   --> E    G_5 D_5   
     e(  4 -  4) =     16.55225  eV     1   --> B_2  G_4 D_2'  
     e(  5 -  5) =     19.04159  eV     1   --> A_1  G_1 D_1   
     e(  6 -  6) =     19.67932  eV     1   --> A_1  G_1 D_1   
     e(  7 -  8) =     27.64076  eV     2   --> E    G_5 D_5   
     e(  9 -  9) =     28.49980  eV     1   --> B_1  G_3 D_2   
     e( 10 - 10) =     31.04308  eV     1   --> B_2  G_4 D_2'  
     e( 11 - 11) =     32.64701  eV     1   --> A_1  G_1 D_1   
     e( 12 - 12) =     34.11786  eV     1   -->   ?

 **************************************************************************

 **************************************************************************

                    xk=(   0.00000,  -0.28284,   0.00000  )

     Band symmetry, C_4v (4mm)  point group:

     e(  1 -  1) =     -1.81263  eV     1   --> A_1  G_1 D_1   
     e(  2 -  3) =     16.25388  eV     2   --> E    G_5 D_5   
     e(  4 -  4) =     16.37779  eV     1   --> B_2  G_4 D_2'  
     e(  5 -  5) =     18.62580  eV     1   --> A_1  G_1 D_1   
     e(  6 -  6) =     19.54298  eV     1   --> A_1  G_1 D_1   
     e(  7 -  8) =     27.92503  eV     2   --> E    G_5 D_5   
     e(  9 -  9) =     28.60607  eV     1   --> B_1  G_3 D_2   
     e( 10 - 10) =     31.45485  eV     1   --> B_2  G_4 D_2'  
     e( 11 - 11) =     32.87348  eV     1   --> A_1  G_1 D_1   
     e( 12 - 12) =     34.29145  eV     1   -->   ?

 **************************************************************************

 **************************************************************************

                    xk=(   0.00000,  -0.29463,   0.00000  )

     Band symmetry, C_4v (4mm)  point group:

     e(  1 -  1) =     -1.69023  eV     1   --> A_1  G_1 D_1   
     e(  2 -  3) =     16.10289  eV     2   --> E    G_5 D_5   
     e(  4 -  4) =     16.20757  eV     1   --> B_2  G_4 D_2'  
     e(  5 -  5) =     18.20929  eV     1   --> A_1  G_1 D_1   
     e(  6 -  6) =     19.41100  eV     1   --> A_1  G_1 D_1   
     e(  7 -  8) =     28.20704  eV     2   --> E    G_5 D_5   
     e(  9 -  9) =     28.71652  eV     1   --> B_1  G_3 D_2   
     e( 10 - 10) =     31.87243  eV     1   --> B_2  G_4 D_2'  
     e( 11 - 11) =     33.10381  eV     1   --> A_1  G_1 D_1   
     e( 12 - 12) =     34.47559  eV     1   -->   ?

 **************************************************************************

 **************************************************************************

                    xk=(   0.00000,  -0.30641,   0.00000  )

     Band symmetry, C_4v (4mm)  point group:

     e(  1 -  1) =     -1.56293  eV     1   --> A_1  G_1 D_1   
     e(  2 -  3) =     15.95604  eV     2   --> E    G_5 D_5   
     e(  4 -  4) =     16.04169  eV     1   --> B_2  G_4 D_2'  
     e(  5 -  5) =     17.79406  eV     1   --> A_1  G_1 D_1   
     e(  6 -  6) =     19.28180  eV     1   --> A_1  G_1 D_1   
     e(  7 -  8) =     28.48633  eV     2   --> E    G_5 D_5   
     e(  9 -  9) =     28.83107  eV     1   --> B_1  G_3 D_2   
     e( 10 - 10) =     32.29572  eV     1   --> B_2  G_4 D_2'  
     e( 11 - 11) =     33.33775  eV     1   --> A_1  G_1 D_1   
     e( 12 - 12) =     34.67059  eV     1   -->   ?

 **************************************************************************

 **************************************************************************

                    xk=(   0.00000,  -0.31820,   0.00000  )

     Band symmetry, C_4v (4mm)  point group:

     e(  1 -  1) =     -1.43075  eV     1   --> A_1  G_1 D_1   
     e(  2 -  3) =     15.81334  eV     2   --> E    G_5 D_5   
     e(  4 -  4) =     15.88021  eV     1   --> B_2  G_4 D_2'  
     e(  5 -  5) =     17.38092  eV     1   --> A_1  G_1 D_1   
     e(  6 -  6) =     19.15497  eV     1   --> A_1  G_1 D_1   
     e(  7 -  8) =     28.76251  eV     2   --> E    G_5 D_5   
     e(  9 -  9) =     28.94968  eV     1   --> B_1  G_3 D_2   
     e( 10 - 10) =     32.72464  eV     1   --> B_2  G_4 D_2'  
     e( 11 - 11) =     33.57506  eV     1   --> A_1  G_1 D_1   
     e( 12 - 12) =     34.87673  eV     1   -->   ?

 **************************************************************************

 **************************************************************************

                    xk=(   0.00000,  -0.32998,   0.00000  )

     Band symmetry, C_4v (4mm)  point group:

     e(  1 -  1) =     -1.29371  eV     1   --> A_1  G_1 D_1   
     e(  2 -  3) =     15.67482  eV     2   --> E    G_5 D_5   
     e(  4 -  4) =     15.72319  eV     1   --> B_2  G_4 D_2'  
     e(  5 -  5) =     16.97030  eV     1   --> A_1  G_1 D_1   
     e(  6 -  6) =     19.03046  eV     1   --> A_1  G_1 D_1   
     e(  7 -  8) =     29.03517  eV     2   --> E    G_5 D_5   
     e(  9 -  9) =     29.07226  eV     1   --> B_1  G_3 D_2   
     e( 10 - 10) =     33.15912  eV     1   --> B_2  G_4 D_2'  
     e( 11 - 11) =     33.81553  eV     1   --> A_1  G_1 D_1   
     e( 12 - 12) =     35.09424  eV     1   -->   ?

 **************************************************************************

 **************************************************************************

                    xk=(   0.00000,  -0.34177,   0.00000  )

     Band symmetry, C_4v (4mm)  point group:

     e(  1 -  1) =     -1.15182  eV     1   --> A_1  G_1 D_1   
     e(  2 -  3) =     15.54048  eV     2   --> E    G_5 D_5   
     e(  4 -  4) =     15.57071  eV     1   --> B_2  G_4 D_2'  
     e(  5 -  5) =     16.56244  eV     1   --> A_1  G_1 D_1   
     e(  6 -  6) =     18.90834  eV     1   --> A_1  G_1 D_1   
     e(  7 -  7) =     29.19873  eV     1   --> B_1  G_3 D_2   
     e(  8 -  9) =     29.30396  eV     2   --> E    G_5 D_5   
     e( 10 - 10) =     33.59910  eV     1   --> B_2  G_4 D_2'  
     e( 11 - 11) =     34.05894  eV     1   --> A_1  G_1 D_1   
     e( 12 - 12) =     35.32329  eV     1   -->   ?

 **************************************************************************

 **************************************************************************

                    xk=(   0.00000,  -0.35355,   0.00000  )

     Band symmetry, C_4v (4mm)  point group:

     e(  1 -  1) =     -1.00510  eV     1   --> A_1  G_1 D_1   
     e(  2 -  3) =     15.41035  eV     2   --> E    G_5 D_5   
     e(  4 -  4) =     15.42279  eV     1   --> B_2  G_4 D_2'  
     e(  5 -  5) =     16.15755  eV     1   --> A_1  G_1 D_1   
     e(  6 -  6) =     18.78871  eV     1   --> A_1  G_1 D_1   
     e(  7 -  7) =     29.32900  eV     1   --> B_1  G_3 D_2   
     e(  8 -  9) =     29.56859  eV     2   --> E    G_5 D_5   
     e( 10 - 10) =     34.04452  eV     1   --> B_2  G_4 D_2'  
     e( 11 - 11) =     34.30510  eV     1   --> A_1  G_1 D_1   
     e( 12 - 12) =     35.56399  eV     1   -->   ?

 **************************************************************************

 **************************************************************************

                    xk=(   0.00000,  -0.36534,   0.00000  )

     Band symmetry, C_4v (4mm)  point group:

     e(  1 -  1) =     -0.85357  eV     1   --> A_1  G_1 D_1   
     e(  2 -  2) =     15.27949  eV     1   --> B_2  G_4 D_2'  
     e(  3 -  4) =     15.28442  eV     2   --> E    G_5 D_5   
     e(  5 -  5) =     15.75575  eV     1   --> A_1  G_1 D_1   
     e(  6 -  6) =     18.67171  eV     1   --> A_1  G_1 D_1   
     e(  7 -  7) =     29.46296  eV     1   --> B_1  G_3 D_2   
     e(  8 -  9) =     29.82878  eV     2   --> E    G_5 D_5   
     e( 10 - 10) =     34.49532  eV     1   --> B_2  G_4 D_2'  
     e( 11 - 11) =     34.55382  eV     1   --> A_1  G_1 D_1   
     e( 12 - 12) =     35.81635  eV     1   -->   ?

 **************************************************************************

 **************************************************************************

                    xk=(   0.00000,  -0.37712,   0.00000  )

     Band symmetry, C_4v (4mm)  point group:

     e(  1 -  1) =     -0.69723  eV     1   --> A_1  G_1 D_1   
     e(  2 -  2) =     15.14085  eV     1   --> B_2  G_4 D_2'  
     e(  3 -  4) =     15.16271  eV     2   --> E    G_5 D_5   
     e(  5 -  5) =     15.35718  eV     1   --> A_1  G_1 D_1   
     e(  6 -  6) =     18.55749  eV     1   --> A_1  G_1 D_1   
     e(  7 -  7) =     29.60051  eV     1   --> B_1  G_3 D_2   
     e(  8 -  9) =     30.08434  eV     2   --> E    G_5 D_5   
     e( 10 - 10) =     34.80490  eV     1   --> A_1  G_1 D_1   
     e( 11 - 11) =     34.95147  eV     1   --> B_2  G_4 D_2'  
     e( 12 - 12) =     36.08027  eV     1   -->   ?

 **************************************************************************

 **************************************************************************

                    xk=(   0.00000,  -0.38891,   0.00000  )

     Band symmetry, C_4v (4mm)  point group:

     e(  1 -  1) =     -0.53612  eV     1   --> A_1  G_1 D_1   
     e(  2 -  2) =     14.96193  eV     1   --> A_1  G_1 D_1   
     e(  3 -  3) =     15.00688  eV     1   --> B_2  G_4 D_2'  
     e(  4 -  5) =     15.04522  eV     2   --> E    G_5 D_5   
     e(  6 -  6) =     18.44617  eV     1   --> A_1  G_1 D_1   
     e(  7 -  7) =     29.74150  eV     1   --> B_1  G_3 D_2   
     e(  8 -  9) =     30.33513  eV     2   --> E    G_5 D_5   
     e( 10 - 10) =     35.05814  eV     1   --> A_1  G_1 D_1   
     e( 11 - 11) =     35.41290  eV     1   --> B_2  G_4 D_2'  
     e( 12 - 12) =     36.35554  eV     1   -->   ?

 **************************************************************************

 **************************************************************************

                    xk=(   0.00000,  -0.40069,   0.00000  )

     Band symmetry, C_4v (4mm)  point group:

     e(  1 -  1) =     -0.37026  eV     1   --> A_1  G_1 D_1   
     e(  2 -  2) =     14.57009  eV     1   --> A_1  G_1 D_1   
     e(  3 -  3) =     14.87763  eV     1   --> B_2  G_4 D_2'  
     e(  4 -  5) =     14.93197  eV     2   --> E    G_5 D_5   
     e(  6 -  6) =     18.33789  eV     1   --> A_1  G_1 D_1   
     e(  7 -  7) =     29.88580  eV     1   --> B_1  G_3 D_2   
     e(  8 -  9) =     30.58105  eV     2   --> E    G_5 D_5   
     e( 10 - 10) =     35.31336  eV     1   --> A_1  G_1 D_1   
     e( 11 - 11) =     35.87959  eV     1   --> B_2  G_4 D_2'  
     e( 12 - 12) =     36.64183  eV     1   -->   ?

 **************************************************************************

 **************************************************************************

                    xk=(   0.00000,  -0.41248,   0.00000  )

     Band symmetry, C_4v (4mm)  point group:

     e(  1 -  1) =     -0.19966  eV     1   --> A_1  G_1 D_1   
     e(  2 -  2) =     14.18174  eV     1   --> A_1  G_1 D_1   
     e(  3 -  3) =     14.75312  eV     1   --> B_2  G_4 D_2'  
     e(  4 -  5) =     14.82296  eV     2   --> E    G_5 D_5   
     e(  6 -  6) =     18.23277  eV     1   --> A_1  G_1 D_1   
     e(  7 -  7) =     30.03324  eV     1   --> B_1  G_3 D_2   
     e(  8 -  9) =     30.82208  eV     2   --> E    G_5 D_5   
     e( 10 - 10) =     35.57033  eV     1   --> A_1  G_1 D_1   
     e( 11 - 11) =     36.35149  eV     1   --> B_2  G_4 D_2'  
     e( 12 - 12) =     36.93864  eV     1   -->   ?

 **************************************************************************

 **************************************************************************

                    xk=(   0.00000,  -0.42426,   0.00000  )

     Band symmetry, C_4v (4mm)  point group:

     e(  1 -  1) =     -0.02436  eV     1   --> A_1  G_1 D_1   
     e(  2 -  2) =     13.79696  eV     1   --> A_1  G_1 D_1   
     e(  3 -  3) =     14.63336  eV     1   --> B_2  G_4 D_2'  
     e(  4 -  5) =     14.71819  eV     2   --> E    G_5 D_5   
     e(  6 -  6) =     18.13094  eV     1   --> A_1  G_1 D_1   
     e(  7 -  7) =     30.18363  eV     1   --> B_1  G_3 D_2   
     e(  8 -  9) =     31.05823  eV     2   --> E    G_5 D_5   
     e( 10 - 10) =     35.82884  eV     1   --> A_1  G_1 D_1   
     e( 11 - 11) =     36.82856  eV     1   --> B_2  G_4 D_2'  
     e( 12 - 12) =     37.24531  eV     1   -->   ?

 **************************************************************************

 **************************************************************************

                    xk=(   0.00000,  -0.43605,   0.00000  )

     Band symmetry, C_4v (4mm)  point group:

     e(  1 -  1) =      0.15562  eV     1   --> A_1  G_1 D_1   
     e(  2 -  2) =     13.41582  eV     1   --> A_1  G_1 D_1   
     e(  3 -  3) =     14.51839  eV     1   --> B_2  G_4 D_2'  
     e(  4 -  5) =     14.61767  eV     2   --> E    G_5 D_5   
     e(  6 -  6) =     18.03250  eV     1   --> A_1  G_1 D_1   
     e(  7 -  7) =     30.33676  eV     1   --> B_1  G_3 D_2   
     e(  8 -  9) =     31.28953  eV     2   --> E    G_5 D_5   
     e( 10 - 10) =     36.08866  eV     1   --> A_1  G_1 D_1   
     e( 11 - 11) =     37.31076  eV     1   --> B_2  G_4 D_2'  
     e( 12 - 12) =     37.56096  eV     1   -->   ?

 **************************************************************************

 **************************************************************************

                    xk=(   0.00000,  -0.44783,   0.00000  )

     Band symmetry, C_4v (4mm)  point group:

     e(  1 -  1) =      0.34025  eV     1   --> A_1  G_1 D_1   
     e(  2 -  2) =     13.03838  eV     1   --> A_1  G_1 D_1   
     e(  3 -  3) =     14.40822  eV     1   --> B_2  G_4 D_2'  
     e(  4 -  5) =     14.52141  eV     2   --> E    G_5 D_5   
     e(  6 -  6) =     17.93756  eV     1   --> A_1  G_1 D_1   
     e(  7 -  7) =     30.49240  eV     1   --> B_1  G_3 D_2   
     e(  8 -  9) =     31.51606  eV     2   --> E    G_5 D_5   
     e( 10 - 10) =     36.34953  eV     1   --> A_1  G_1 D_1   
     e( 11 - 11) =     37.79806  eV     1   --> B_2  G_4 D_2'  
     e( 12 - 12) =     37.88445  eV     1   -->   ?

 **************************************************************************

 **************************************************************************

                    xk=(   0.00000,  -0.45962,   0.00000  )

     Band symmetry, C_4v (4mm)  point group:

     e(  1 -  1) =      0.52949  eV     1   --> A_1  G_1 D_1   
     e(  2 -  2) =     12.66472  eV     1   --> A_1  G_1 D_1   
     e(  3 -  3) =     14.30286  eV     1   --> B_2  G_4 D_2'  
     e(  4 -  5) =     14.42941  eV     2   --> E    G_5 D_5   
     e(  6 -  6) =     17.84622  eV     1   --> A_1  G_1 D_1   
     e(  7 -  7) =     30.65026  eV     1   --> B_1  G_3 D_2   
     e(  8 -  9) =     31.73790  eV     2   --> E    G_5 D_5   
     e( 10 - 10) =     36.61118  eV     1   --> A_1  G_1 D_1   
     e( 11 - 12) =     38.21433  eV     2   --> E    G_5 D_5   

 **************************************************************************

 **************************************************************************

                    xk=(   0.00000,  -0.47140,   0.00000  )

     Band symmetry, C_4v (4mm)  point group:

     e(  1 -  1) =      0.72331  eV     1   --> A_1  G_1 D_1   
     e(  2 -  2) =     12.29490  eV     1   --> A_1  G_1 D_1   
     e(  3 -  3) =     14.20233  eV     1   --> B_2  G_4 D_2'  
     e(  4 -  5) =     14.34167  eV     2   --> E    G_5 D_5   
     e(  6 -  6) =     17.75857  eV     1   --> A_1  G_1 D_1   
     e(  7 -  7) =     30.81004  eV     1   --> B_1  G_3 D_2   
     e(  8 -  9) =     31.95512  eV     2   --> E    G_5 D_5   
     e( 10 - 10) =     36.87330  eV     1   --> A_1  G_1 D_1   
     e( 11 - 12) =     38.54866  eV     2   --> E    G_5 D_5   

 **************************************************************************

 **************************************************************************

                    xk=(   0.00000,  -0.48319,   0.00000  )

     Band symmetry, C_4v (4mm)  point group:

     e(  1 -  1) =      0.92167  eV     1   --> A_1  G_1 D_1   
     e(  2 -  2) =     11.92900  eV     1   --> A_1  G_1 D_1   
     e(  3 -  3) =     14.10664  eV     1   --> B_2  G_4 D_2'  
     e(  4 -  5) =     14.25820  eV     2   --> E    G_5 D_5   
     e(  6 -  6) =     17.67470  eV     1   --> A_1  G_1 D_1   
     e(  7 -  7) =     30.97139  eV     1   --> B_1  G_3 D_2   
     e(  8 -  9) =     32.16777  eV     2   --> E    G_5 D_5   
     e( 10 - 10) =     37.13556  eV     1   --> A_1  G_1 D_1   
     e( 11 - 12) =     38.88489  eV     2   --> E    G_5 D_5   

 **************************************************************************

 **************************************************************************

                    xk=(   0.00000,  -0.49497,   0.00000  )

     Band symmetry, C_4v (4mm)  point group:

     e(  1 -  1) =      1.12451  eV     1   --> A_1  G_1 D_1   
     e(  2 -  2) =     11.56708  eV     1   --> A_1  G_1 D_1   
     e(  3 -  3) =     14.01581  eV     1   --> B_2  G_4 D_2'  
     e(  4 -  5) =     14.17899  eV     2   --> E    G_5 D_5   
     e(  6 -  6) =     17.59469  eV     1   --> A_1  G_1 D_1   
     e(  7 -  7) =     31.13389  eV     1   --> B_1  G_3 D_2   
     e(  8 -  9) =     32.37587  eV     2   --> E    G_5 D_5   
     e( 10 - 10) =     37.39758  eV     1   --> A_1  G_1 D_1   
     e( 11 - 12) =     39.21956  eV     2   --> E    G_5 D_5   

 **************************************************************************

 **************************************************************************

                    xk=(   0.00000,  -0.50676,   0.00000  )

     Band symmetry, C_4v (4mm)  point group:

     e(  1 -  1) =      1.33178  eV     1   --> A_1  G_1 D_1   
     e(  2 -  2) =     11.20922  eV     1   --> A_1  G_1 D_1   
     e(  3 -  3) =     13.92983  eV     1   --> B_2  G_4 D_2'  
     e(  4 -  5) =     14.10405  eV     2   --> E    G_5 D_5   
     e(  6 -  6) =     17.51860  eV     1   --> A_1  G_1 D_1   
     e(  7 -  7) =     31.29708  eV     1   --> B_1  G_3 D_2   
     e(  8 -  9) =     32.57939  eV     2   --> E    G_5 D_5   
     e( 10 - 10) =     37.65895  eV     1   --> A_1  G_1 D_1   
     e( 11 - 12) =     39.54791  eV     2   --> E    G_5 D_5   

 **************************************************************************

 **************************************************************************

                    xk=(   0.00000,  -0.51854,   0.00000  )

     Band symmetry, C_4v (4mm)  point group:

     e(  1 -  1) =      1.54341  eV     1   --> A_1  G_1 D_1   
     e(  2 -  2) =     10.85552  eV     1   --> A_1  G_1 D_1   
     e(  3 -  3) =     13.84873  eV     1   --> B_2  G_4 D_2'  
     e(  4 -  5) =     14.03339  eV     2   --> E    G_5 D_5   
     e(  6 -  6) =     17.44652  eV     1   --> A_1  G_1 D_1   
     e(  7 -  7) =     31.46043  eV     1   --> B_1  G_3 D_2   
     e(  8 -  9) =     32.77823  eV     2   --> E    G_5 D_5   
     e( 10 - 10) =     37.91920  eV     1   --> A_1  G_1 D_1   
     e( 11 - 12) =     39.86337  eV     2   --> E    G_5 D_5   

 **************************************************************************

 **************************************************************************

                    xk=(   0.00000,  -0.53033,   0.00000  )

     Band symmetry, C_4v (4mm)  point group:

     e(  1 -  1) =      1.75932  eV     1   --> A_1  G_1 D_1   
     e(  2 -  2) =     10.50606  eV     1   --> A_1  G_1 D_1   
     e(  3 -  3) =     13.77251  eV     1   --> B_2  G_4 D_2'  
     e(  4 -  5) =     13.96700  eV     2   --> E    G_5 D_5   
     e(  6 -  6) =     17.37851  eV     1   --> A_1  G_1 D_1   
     e(  7 -  7) =     31.62333  eV     1   --> B_1  G_3 D_2   
     e(  8 -  9) =     32.97222  eV     2   --> E    G_5 D_5   
     e( 10 - 10) =     38.17779  eV     1   --> A_1  G_1 D_1   
     e( 11 - 12) =     40.15694  eV     2   --> E    G_5 D_5   

 **************************************************************************

 **************************************************************************

                    xk=(   0.00000,  -0.54212,   0.00000  )

[...]
     e(  5 -  5) =     22.10059  eV     1   --> B_2  D_4  S_4  
     e(  6 -  6) =     23.44541  eV     1   --> B_1  D_3  S_3  
     e(  7 -  7) =     23.54220  eV     1   --> B_2  D_4  S_4  
     e(  8 -  8) =     24.45619  eV     1   --> A_1  D_1  S_1  
     e(  9 -  9) =     25.14804  eV     1   --> A_1  D_1  S_1  
     e( 10 - 10) =     29.77834  eV     1   --> B_1  D_3  S_3  
     e( 11 - 11) =     30.44681  eV     1   --> A_1  D_1  S_1  
     e( 12 - 12) =     33.55247  eV     1   --> B_1  D_3  S_3  

 **************************************************************************

 **************************************************************************

                    xk=(  -0.56569,  -0.70711,   0.56569  )

     Band symmetry, C_2v (mm2)  point group:

     e(  1 -  1) =     -2.53399  eV     1   --> A_1  D_1  S_1  
     e(  2 -  2) =     15.64269  eV     1   --> B_1  D_3  S_3  
     e(  3 -  3) =     16.69267  eV     1   --> A_1  D_1  S_1  
     e(  4 -  4) =     21.23514  eV     1   --> A_2  D_2  S_2  
     e(  5 -  5) =     22.12241  eV     1   --> B_2  D_4  S_4  
     e(  6 -  6) =     23.36178  eV     1   --> B_1  D_3  S_3  
     e(  7 -  7) =     23.74551  eV     1   --> B_2  D_4  S_4  
     e(  8 -  8) =     24.46522  eV     1   --> A_1  D_1  S_1  
     e(  9 -  9) =     25.20628  eV     1   --> A_1  D_1  S_1  
     e( 10 - 10) =     29.36454  eV     1   --> B_1  D_3  S_3  
     e( 11 - 11) =     30.32217  eV     1   --> A_1  D_1  S_1  
     e( 12 - 12) =     33.38606  eV     1   --> B_1  D_3  S_3  

 **************************************************************************

 **************************************************************************

                    xk=(  -0.57452,  -0.70711,   0.57452  )

     Band symmetry, C_2v (mm2)  point group:

     e(  1 -  1) =     -2.62157  eV     1   --> A_1  D_1  S_1  
     e(  2 -  2) =     15.97138  eV     1   --> B_1  D_3  S_3  
     e(  3 -  3) =     16.97337  eV     1   --> A_1  D_1  S_1  
     e(  4 -  4) =     21.15053  eV     1   --> A_2  D_2  S_2  
     e(  5 -  5) =     22.12073  eV     1   --> B_2  D_4  S_4  
     e(  6 -  6) =     23.28118  eV     1   --> B_1  D_3  S_3  
     e(  7 -  7) =     23.97866  eV     1   --> B_2  D_4  S_4  
     e(  8 -  8) =     24.37361  eV     1   --> A_1  D_1  S_1  
     e(  9 -  9) =     25.35936  eV     1   --> A_1  D_1  S_1  
     e( 10 - 10) =     28.94449  eV     1   --> B_1  D_3  S_3  
     e( 11 - 11) =     30.20482  eV     1   --> A_1  D_1  S_1  
     e( 12 - 12) =     33.23938  eV     1   --> B_1  D_3  S_3  

 **************************************************************************

 **************************************************************************

                    xk=(  -0.58336,  -0.70711,   0.58336  )

     Band symmetry, C_2v (mm2)  point group:

     e(  1 -  1) =     -2.70354  eV     1   --> A_1  D_1  S_1  
     e(  2 -  2) =     16.30385  eV     1   --> B_1  D_3  S_3  
     e(  3 -  3) =     17.25432  eV     1   --> A_1  D_1  S_1  
     e(  4 -  4) =     21.07136  eV     1   --> A_2  D_2  S_2  
     e(  5 -  5) =     22.10480  eV     1   --> B_2  D_4  S_4  
     e(  6 -  6) =     23.20322  eV     1   --> B_1  D_3  S_3  
     e(  7 -  7) =     24.23184  eV     1   --> B_2  D_4  S_4  
     e(  8 -  8) =     24.23422  eV     1   --> A_1  D_1  S_1  
     e(  9 -  9) =     25.55282  eV     1   --> A_1  D_1  S_1  
     e( 10 - 10) =     28.52153  eV     1   --> B_1  D_3  S_3  
     e( 11 - 11) =     30.09592  eV     1   --> A_1  D_1  S_1  
     e( 12 - 12) =     33.10970  eV     1   --> B_1  D_3  S_3  

 **************************************************************************

 **************************************************************************

                    xk=(  -0.59220,  -0.70711,   0.59220  )

     Band symmetry, C_2v (mm2)  point group:

     e(  1 -  1) =     -2.77990  eV     1   --> A_1  D_1  S_1  
     e(  2 -  2) =     16.63980  eV     1   --> B_1  D_3  S_3  
     e(  3 -  3) =     17.53514  eV     1   --> A_1  D_1  S_1  
     e(  4 -  4) =     20.99763  eV     1   --> A_2  D_2  S_2  
     e(  5 -  5) =     22.08084  eV     1   --> B_2  D_4  S_4  
     e(  6 -  6) =     23.12740  eV     1   --> B_1  D_3  S_3  
     e(  7 -  7) =     24.07345  eV     1   --> A_1  D_1  S_1  
     e(  8 -  8) =     24.49811  eV     1   --> B_2  D_4  S_4  
     e(  9 -  9) =     25.75845  eV     1   --> A_1  D_1  S_1  
     e( 10 - 10) =     28.09870  eV     1   --> B_1  D_3  S_3  
     e( 11 - 11) =     29.99672  eV     1   --> A_1  D_1  S_1  
     e( 12 - 12) =     32.99479  eV     1   --> B_1  D_3  S_3  

 **************************************************************************

 **************************************************************************

                    xk=(  -0.60104,  -0.70711,   0.60104  )

     Band symmetry, C_2v (mm2)  point group:

     e(  1 -  1) =     -2.85062  eV     1   --> A_1  D_1  S_1  
     e(  2 -  2) =     16.97889  eV     1   --> B_1  D_3  S_3  
     e(  3 -  3) =     17.81538  eV     1   --> A_1  D_1  S_1  
     e(  4 -  4) =     20.92934  eV     1   --> A_2  D_2  S_2  
     e(  5 -  5) =     22.05282  eV     1   --> B_2  D_4  S_4  
     e(  6 -  6) =     23.05305  eV     1   --> B_1  D_3  S_3  
     e(  7 -  7) =     23.90106  eV     1   --> A_1  D_1  S_1  
     e(  8 -  8) =     24.77262  eV     1   --> B_2  D_4  S_4  
     e(  9 -  9) =     25.96449  eV     1   --> A_1  D_1  S_1  
     e( 10 - 10) =     27.67882  eV     1   --> B_1  D_3  S_3  
     e( 11 - 11) =     29.90862  eV     1   --> A_1  D_1  S_1  
     e( 12 - 12) =     32.89287  eV     1   --> B_1  D_3  S_3  

 **************************************************************************

 **************************************************************************

                    xk=(  -0.60988,  -0.70711,   0.60988  )

     Band symmetry, C_2v (mm2)  point group:

     e(  1 -  1) =     -2.91572  eV     1   --> A_1  D_1  S_1  
     e(  2 -  2) =     17.32066  eV     1   --> B_1  D_3  S_3  
     e(  3 -  3) =     18.09452  eV     1   --> A_1  D_1  S_1  
     e(  4 -  4) =     20.86650  eV     1   --> A_2  D_2  S_2  
     e(  5 -  5) =     22.02324  eV     1   --> B_2  D_4  S_4  
     e(  6 -  6) =     22.97926  eV     1   --> B_1  D_3  S_3  
     e(  7 -  7) =     23.72092  eV     1   --> A_1  D_1  S_1  
     e(  8 -  8) =     25.05175  eV     1   --> B_2  D_4  S_4  
     e(  9 -  9) =     26.16490  eV     1   --> A_1  D_1  S_1  
     e( 10 - 10) =     27.26470  eV     1   --> B_1  D_3  S_3  
     e( 11 - 11) =     29.83311  eV     1   --> A_1  D_1  S_1  
     e( 12 - 12) =     32.80251  eV     1   --> B_1  D_3  S_3  

 **************************************************************************

 **************************************************************************

                    xk=(  -0.61872,  -0.70711,   0.61872  )

     Band symmetry, C_2v (mm2)  point group:

     e(  1 -  1) =     -2.97518  eV     1   --> A_1  D_1  S_1  
     e(  2 -  2) =     17.66453  eV     1   --> B_1  D_3  S_3  
     e(  3 -  3) =     18.37195  eV     1   --> A_1  D_1  S_1  
     e(  4 -  4) =     20.80912  eV     1   --> A_2  D_2  S_2  
     e(  5 -  5) =     21.99373  eV     1   --> B_2  D_4  S_4  
     e(  6 -  6) =     22.90478  eV     1   --> B_1  D_3  S_3  
     e(  7 -  7) =     23.53479  eV     1   --> A_1  D_1  S_1  
     e(  8 -  8) =     25.33243  eV     1   --> B_2  D_4  S_4  
     e(  9 -  9) =     26.35562  eV     1   --> A_1  D_1  S_1  
     e( 10 - 10) =     26.85930  eV     1   --> B_1  D_3  S_3  
     e( 11 - 11) =     29.77171  eV     1   --> A_1  D_1  S_1  
     e( 12 - 12) =     32.72257  eV     1   --> B_1  D_3  S_3  

 **************************************************************************

 **************************************************************************

                    xk=(  -0.62756,  -0.70711,   0.62756  )

     Band symmetry, C_2v (mm2)  point group:

     e(  1 -  1) =     -3.02899  eV     1   --> A_1  D_1  S_1  
     e(  2 -  2) =     18.00970  eV     1   --> B_1  D_3  S_3  
     e(  3 -  3) =     18.64698  eV     1   --> A_1  D_1  S_1  
     e(  4 -  4) =     20.75718  eV     1   --> A_2  D_2  S_2  
     e(  5 -  5) =     21.96535  eV     1   --> B_2  D_4  S_4  
     e(  6 -  6) =     22.82795  eV     1   --> B_1  D_3  S_3  
     e(  7 -  7) =     23.34365  eV     1   --> A_1  D_1  S_1  
     e(  8 -  8) =     25.61172  eV     1   --> B_2  D_4  S_4  
     e(  9 -  9) =     26.46596  eV     1   --> B_1  D_3  S_3  
     e( 10 - 10) =     26.53337  eV     1   --> A_1  D_1  S_1  
     e( 11 - 11) =     29.72579  eV     1   --> A_1  D_1  S_1  
     e( 12 - 12) =     32.65217  eV     1   --> B_1  D_3  S_3  

 **************************************************************************

 **************************************************************************

                    xk=(  -0.63640,  -0.70711,   0.63640  )

     Band symmetry, C_2v (mm2)  point group:

     e(  1 -  1) =     -3.07715  eV     1   --> A_1  D_1  S_1  
     e(  2 -  2) =     18.35512  eV     1   --> B_1  D_3  S_3  
     e(  3 -  3) =     18.91868  eV     1   --> A_1  D_1  S_1  
     e(  4 -  4) =     20.71071  eV     1   --> A_2  D_2  S_2  
     e(  5 -  5) =     21.93883  eV     1   --> B_2  D_4  S_4  
     e(  6 -  6) =     22.74653  eV     1   --> B_1  D_3  S_3  
     e(  7 -  7) =     23.14828  eV     1   --> A_1  D_1  S_1  
     e(  8 -  8) =     25.88651  eV     1   --> B_2  D_4  S_4  
     e(  9 -  9) =     26.08867  eV     1   --> B_1  D_3  S_3  
     e( 10 - 10) =     26.69530  eV     1   --> A_1  D_1  S_1  
     e( 11 - 11) =     29.69636  eV     1   --> A_1  D_1  S_1  
     e( 12 - 12) =     32.59061  eV     1   --> B_1  D_3  S_3  

 **************************************************************************

 **************************************************************************

                    xk=(  -0.64523,  -0.70711,   0.64523  )

     Band symmetry, C_2v (mm2)  point group:

     e(  1 -  1) =     -3.11966  eV     1   --> A_1  D_1  S_1  
     e(  2 -  2) =     18.69933  eV     1   --> B_1  D_3  S_3  
     e(  3 -  3) =     19.18589  eV     1   --> A_1  D_1  S_1  
     e(  4 -  4) =     20.66970  eV     1   --> A_2  D_2  S_2  
     e(  5 -  5) =     21.91468  eV     1   --> B_2  D_4  S_4  
     e(  6 -  6) =     22.65764  eV     1   --> B_1  D_3  S_3  
     e(  7 -  7) =     22.94956  eV     1   --> A_1  D_1  S_1  
     e(  8 -  8) =     25.73238  eV     1   --> B_1  D_3  S_3  
     e(  9 -  9) =     26.15314  eV     1   --> B_2  D_4  S_4  
     e( 10 - 10) =     26.83900  eV     1   --> A_1  D_1  S_1  
     e( 11 - 11) =     29.68373  eV     1   --> A_1  D_1  S_1  
     e( 12 - 12) =     32.53732  eV     1   --> B_1  D_3  S_3  

 **************************************************************************

 **************************************************************************

                    xk=(  -0.65407,  -0.70711,   0.65407  )

     Band symmetry, C_2v (mm2)  point group:

     e(  1 -  1) =     -3.15651  eV     1   --> A_1  D_1  S_1  
     e(  2 -  2) =     19.04018  eV     1   --> B_1  D_3  S_3  
     e(  3 -  3) =     19.44699  eV     1   --> A_1  D_1  S_1  
     e(  4 -  4) =     20.63415  eV     1   --> A_2  D_2  S_2  
     e(  5 -  5) =     21.89324  eV     1   --> B_2  D_4  S_4  
     e(  6 -  6) =     22.55775  eV     1   --> B_1  D_3  S_3  
     e(  7 -  7) =     22.74876  eV     1   --> A_1  D_1  S_1  
     e(  8 -  8) =     25.40316  eV     1   --> B_1  D_3  S_3  
     e(  9 -  9) =     26.40719  eV     1   --> B_2  D_4  S_4  
     e( 10 - 10) =     26.96270  eV     1   --> A_1  D_1  S_1  
     e( 11 - 11) =     29.68710  eV     1   --> A_1  D_1  S_1  
     e( 12 - 12) =     32.49187  eV     1   --> B_1  D_3  S_3  

 **************************************************************************

 **************************************************************************

                    xk=(  -0.66291,  -0.70711,   0.66291  )

     Band symmetry, C_2v (mm2)  point group:

     e(  1 -  1) =     -3.18770  eV     1   --> A_1  D_1  S_1  
     e(  2 -  2) =     19.37449  eV     1   --> B_1  D_3  S_3  
     e(  3 -  3) =     19.69953  eV     1   --> A_1  D_1  S_1  
     e(  4 -  4) =     20.60407  eV     1   --> A_2  D_2  S_2  
     e(  5 -  5) =     21.87478  eV     1   --> B_2  D_4  S_4  
     e(  6 -  6) =     22.44316  eV     1   --> B_1  D_3  S_3  
     e(  7 -  7) =     22.54794  eV     1   --> A_1  D_1  S_1  
     e(  8 -  8) =     25.10826  eV     1   --> B_1  D_3  S_3  
     e(  9 -  9) =     26.64315  eV     1   --> B_2  D_4  S_4  
     e( 10 - 10) =     27.06546  eV     1   --> A_1  D_1  S_1  
     e( 11 - 11) =     29.70420  eV     1   --> A_1  D_1  S_1  
     e( 12 - 12) =     32.45391  eV     1   --> B_1  D_3  S_3  

 **************************************************************************

 **************************************************************************

                    xk=(  -0.67175,  -0.70711,   0.67175  )

     Band symmetry, C_2v (mm2)  point group:

     e(  1 -  1) =     -3.21322  eV     1   --> A_1  D_1  S_1  
     e(  2 -  2) =     19.69710  eV     1   --> B_1  D_3  S_3  
     e(  3 -  3) =     19.93961  eV     1   --> A_1  D_1  S_1  
     e(  4 -  4) =     20.57945  eV     1   --> A_2  D_2  S_2  
     e(  5 -  5) =     21.85947  eV     1   --> B_2  D_4  S_4  
     e(  6 -  6) =     22.31138  eV     1   --> B_1  D_3  S_3  
     e(  7 -  7) =     22.35067  eV     1   --> A_1  D_1  S_1  
     e(  8 -  8) =     24.85558  eV     1   --> B_1  D_3  S_3  
     e(  9 -  9) =     26.85426  eV     1   --> B_2  D_4  S_4  
     e( 10 - 10) =     27.14725  eV     1   --> A_1  D_1  S_1  
     e( 11 - 11) =     29.73105  eV     1   --> A_1  D_1  S_1  
     e( 12 - 12) =     32.42318  eV     1   --> B_1  D_3  S_3  

 **************************************************************************

 **************************************************************************

                    xk=(  -0.68059,  -0.70711,   0.68059  )

     Band symmetry, C_2v (mm2)  point group:

     e(  1 -  1) =     -3.23307  eV     1   --> A_1  D_1  S_1  
     e(  2 -  2) =     19.99916  eV     1   --> B_1  D_3  S_3  
     e(  3 -  3) =     20.16045  eV     1   --> A_1  D_1  S_1  
     e(  4 -  4) =     20.56031  eV     1   --> A_2  D_2  S_2  
     e(  5 -  5) =     21.84744  eV     1   --> B_2  D_4  S_4  
     e(  6 -  6) =     22.16345  eV     1   --> A_1  D_1  S_1  
     e(  7 -  7) =     22.16401  eV     1   --> B_1  D_3  S_3  
     e(  8 -  8) =     24.65260  eV     1   --> B_1  D_3  S_3  
     e(  9 -  9) =     27.03246  eV     1   --> B_2  D_4  S_4  
     e( 10 - 10) =     27.20884  eV     1   --> A_1  D_1  S_1  
     e( 11 - 11) =     29.76215  eV     1   --> A_1  D_1  S_1  
     e( 12 - 12) =     32.39948  eV     1   --> B_1  D_3  S_3  

 **************************************************************************

 **************************************************************************

                    xk=(  -0.68943,  -0.70711,   0.68943  )

     Band symmetry, C_2v (mm2)  point group:

     e(  1 -  1) =     -3.24725  eV     1   --> A_1  D_1  S_1  
     e(  2 -  2) =     20.26410  eV     1   --> B_1  D_3  S_3  
     e(  3 -  3) =     20.34961  eV     1   --> A_1  D_1  S_1  
     e(  4 -  4) =     20.54663  eV     1   --> A_2  D_2  S_2  
     e(  5 -  5) =     21.83879  eV     1   --> B_2  D_4  S_4  
     e(  6 -  6) =     21.99847  eV     1   --> A_1  D_1  S_1  
     e(  7 -  7) =     22.01213  eV     1   --> B_1  D_3  S_3  
     e(  8 -  8) =     24.50495  eV     1   --> B_1  D_3  S_3  
     e(  9 -  9) =     27.16890  eV     1   --> B_2  D_4  S_4  
     e( 10 - 10) =     27.25145  eV     1   --> A_1  D_1  S_1  
     e( 11 - 11) =     29.79106  eV     1   --> A_1  D_1  S_1  
     e( 12 - 12) =     32.38265  eV     1   --> B_1  D_3  S_3  

 **************************************************************************

 **************************************************************************

                    xk=(  -0.69827,  -0.70711,   0.69827  )

     Band symmetry, C_2v (mm2)  point group:

     e(  1 -  1) =     -3.25576  eV     1   --> A_1  D_1  S_1  
     e(  2 -  2) =     20.45987  eV     1   --> B_1  D_3  S_3  
     e(  3 -  3) =     20.48490  eV     1   --> A_1  D_1  S_1  
     e(  4 -  4) =     20.53842  eV     1   --> A_2  D_2  S_2  
     e(  5 -  5) =     21.83358  eV     1   --> B_2  D_4  S_4  
     e(  6 -  6) =     21.87775  eV     1   --> A_1  D_1  S_1  
     e(  7 -  7) =     21.88480  eV     1   --> B_1  D_3  S_3  
     e(  8 -  8) =     24.41571  eV     1   --> B_1  D_3  S_3  
     e(  9 -  9) =     27.25506  eV     1   --> B_2  D_4  S_4  
     e( 10 - 10) =     27.27638  eV     1   --> A_1  D_1  S_1  
     e( 11 - 11) =     29.81154  eV     1   --> A_1  D_1  S_1  
     e( 12 - 12) =     32.37259  eV     1   --> B_1  D_3  S_3  

 **************************************************************************

 **************************************************************************

                    xk=(  -0.70711,  -0.70711,   0.70711  )

     point group O_h (m-3m) 
     there are 10 classes
     the character table:

       E     8C3   3C2   6C4   6C2'  i     8S6   3s_h  6S4   6s_d 
A_1g   1.00  1.00  1.00  1.00  1.00  1.00  1.00  1.00  1.00  1.00
A_2g   1.00  1.00  1.00 -1.00 -1.00  1.00  1.00  1.00 -1.00 -1.00
E_g    2.00 -1.00  2.00  0.00  0.00  2.00 -1.00  2.00  0.00  0.00
T_1g   3.00  0.00 -1.00  1.00 -1.00  3.00  0.00 -1.00  1.00 -1.00
T_2g   3.00  0.00 -1.00 -1.00  1.00  3.00  0.00 -1.00 -1.00  1.00
A_1u   1.00  1.00  1.00  1.00  1.00 -1.00 -1.00 -1.00 -1.00 -1.00
A_2u   1.00  1.00  1.00 -1.00 -1.00 -1.00 -1.00 -1.00  1.00  1.00
E_u    2.00 -1.00  2.00  0.00  0.00 -2.00  1.00 -2.00  0.00  0.00
T_1u   3.00  0.00 -1.00  1.00 -1.00 -3.00  0.00  1.00 -1.00  1.00
T_2u   3.00  0.00 -1.00 -1.00  1.00 -3.00  0.00  1.00  1.00 -1.00

     the symmetry operations in each class and the name of the first element:

     E        1
                                                                 
     8C3     17   19   20   18   24   21   22   23
                                                                 
     3C2      2    4    3
                                                                 
     6C4      7    8   15   16   12   11
                                                                 
     6C2'     5    6   14   13   10    9
                                                                 
     i       25
                                                                 
     8S6     41   43   44   42   48   45   46   47
                                                                 
     3s_h    26   28   27
                                                                 
     6S4     31   32   39   40   36   35
                                                                 
     6s_d    29   30   38   37   34   33
                                                                 

     Band symmetry, O_h (m-3m)  point group:

     e(  1 -  1) =     -3.25860  eV     1   --> A_1g G_1   G_1+
     e(  2 -  4) =     20.53569  eV     3   --> T_2g G_25' G_5+
     e(  5 -  7) =     21.83184  eV     3   --> T_1u G_15  G_4-
     e(  8 -  8) =     24.38591  eV     1   --> A_2u G_2'  G_2-
     e(  9 - 10) =     27.28457  eV     2   --> E_g  G_12  G_3+
     e( 11 - 11) =     29.81893  eV     1   --> A_1g G_1   G_1+
     e( 12 - 12) =     32.36924  eV     1   -->   ?

 **************************************************************************
 
     BANDS        :      4.87s CPU      7.64s WALL

 
   This run was terminated on:  20:13:23  10Jun2026            

=------------------------------------------------------------------------------=
   JOB DONE.
=------------------------------------------------------------------------------=
