
     Program PWSCF v.7.1 starts on 10Jun2026 at 18:53:12 

     This program is part of the open-source Quantum ESPRESSO suite
     for quantum simulation of materials; please cite
         "P. Giannozzi et al., J. Phys.:Condens. Matter 21 395502 (2009);
         "P. Giannozzi et al., J. Phys.:Condens. Matter 29 465901 (2017);
         "P. Giannozzi et al., J. Chem. Phys. 152 154105 (2020);
          URL http://www.quantum-espresso.org", 
     in publications or presentations arising from this work. More details at
     http://www.quantum-espresso.org/quote

     Parallel version (MPI & OpenMP), running on       7 processor cores
     Number of MPI processes:                 7
     Threads/MPI process:                     1

     MPI processes distributed on     7 nodes
     225100 MiB available memory on the printing compute node when the environment starts
 
     Waiting for input...
     Reading input from standard input
Warning: card &CELL ignored
Warning: card / ignored
Warning: card / ignored

     Current dimensions of program PWSCF are:
     Max number of different atomic species (ntypx) = 10
     Max number of k-points (npk) =  40000
     Max angular momentum in pseudopotentials (lmaxx) =  4
     Message from routine setup:
     using ibrav=0 with symmetry is DISCOURAGED, use correct ibrav instead
 
     K-points division:     npool     =       7
     Subspace diagonalization in iterative solution of the eigenvalue problem:
     a serial algorithm will be used

 
     G-vector sticks info
     --------------------
     sticks:   dense  smooth     PW     G-vecs:    dense   smooth      PW
     Sum         805     313    109                15065     3839     749
 
     Using Slab Decomposition
 


     bravais-lattice index     =            0
     lattice parameter (alat)  =       5.3984  a.u.
     unit-cell volume          =     111.2451 (a.u.)^3
     number of atoms/cell      =            1
     number of atomic types    =            1
     number of electrons       =         3.00
     number of Kohn-Sham states=            6
     kinetic-energy cutoff     =      40.0000  Ry
     charge density cutoff     =     400.0000  Ry
     scf convergence threshold =      1.0E-08
     mixing beta               =       0.0750
     number of iterations used =            8  plain     mixing
     Exchange-correlation= SLA  PW   PBE  PBE
                           (   1   4   3   4   0   0   0)

     celldm(1)=   5.398402  celldm(2)=   0.000000  celldm(3)=   0.000000
     celldm(4)=   0.000000  celldm(5)=   0.000000  celldm(6)=   0.000000

     crystal axes: (cart. coord. in units of alat)
               a(1) = (   0.000000   0.707107   0.707107 )  
               a(2) = (   0.707107   0.000000   0.707107 )  
               a(3) = (   0.707107   0.707107   0.000000 )  

     reciprocal axes: (cart. coord. in units 2 pi/alat)
               b(1) = ( -0.707107  0.707107  0.707107 )  
               b(2) = (  0.707107 -0.707107  0.707107 )  
               b(3) = (  0.707107  0.707107 -0.707107 )  


     PseudoPot. # 1 for Al read from file:
     /home/k0750/k075000/PSPOT/al_pbe_v1.uspp.F.UPF
     MD5 check sum: 0a6289f5291fc8f409219462bc851e1f
     Pseudo is Ultrasoft + core correction, Zval =  3.0
     Generated by new atomic code, or converted to UPF format
     Using radial grid of  893 points,  3 beta functions with: 
                l(1) =   0
                l(2) =   1
                l(3) =   2
     Q(r) pseudized with  8 coefficients,  rinner =    0.900   0.900   0.900
                                                       0.900   0.900

     atomic species   valence    mass     pseudopotential
        Al             3.00    13.00000     Al( 1.00)

     48 Sym. Ops., with inversion, found



   Cartesian axes

     site n.     atom                  positions (alat units)
         1           Al  tau(   1) = (   0.0000000   0.0000000   0.0000000  )

     number of k points=    72  Methfessel-Paxton smearing, width (Ry)=  0.0100
                       cart. coord. in units 2pi/alat
        k(    1) = (   0.0000000   0.0000000   0.0000000), wk =   0.0011574
        k(    2) = (   0.0589256   0.0589256  -0.0589256), wk =   0.0092593
        k(    3) = (   0.1178511   0.1178511  -0.1178511), wk =   0.0092593
        k(    4) = (   0.1767767   0.1767767  -0.1767767), wk =   0.0092593
        k(    5) = (   0.2357023   0.2357023  -0.2357023), wk =   0.0092593
        k(    6) = (   0.2946278   0.2946278  -0.2946278), wk =   0.0092593
        k(    7) = (  -0.3535534  -0.3535534   0.3535534), wk =   0.0046296
        k(    8) = (   0.1178511   0.0000000   0.0000000), wk =   0.0069444
        k(    9) = (   0.1767767   0.0589256  -0.0589256), wk =   0.0277778
        k(   10) = (   0.2357023   0.1178511  -0.1178511), wk =   0.0277778
        k(   11) = (   0.2946278   0.1767767  -0.1767767), wk =   0.0277778
        k(   12) = (   0.3535534   0.2357023  -0.2357023), wk =   0.0277778
        k(   13) = (  -0.2946278  -0.4124790   0.4124790), wk =   0.0277778
        k(   14) = (  -0.2357023  -0.3535534   0.3535534), wk =   0.0277778
        k(   15) = (  -0.1767767  -0.2946278   0.2946278), wk =   0.0277778
        k(   16) = (  -0.1178511  -0.2357023   0.2357023), wk =   0.0277778
        k(   17) = (  -0.0589256  -0.1767767   0.1767767), wk =   0.0277778
        k(   18) = (  -0.0000000  -0.1178511   0.1178511), wk =   0.0138889
        k(   19) = (   0.2357023   0.0000000   0.0000000), wk =   0.0069444
        k(   20) = (   0.2946278   0.0589256  -0.0589256), wk =   0.0277778
        k(   21) = (   0.3535534   0.1178511  -0.1178511), wk =   0.0277778
        k(   22) = (   0.4124790   0.1767767  -0.1767767), wk =   0.0277778
        k(   23) = (  -0.2357023  -0.4714045   0.4714045), wk =   0.0277778
        k(   24) = (  -0.1767767  -0.4124790   0.4124790), wk =   0.0277778
        k(   25) = (  -0.1178511  -0.3535534   0.3535534), wk =   0.0277778
        k(   26) = (  -0.0589256  -0.2946278   0.2946278), wk =   0.0277778
        k(   27) = (   0.0000000  -0.2357023   0.2357023), wk =   0.0138889
        k(   28) = (   0.3535534   0.0000000   0.0000000), wk =   0.0069444
        k(   29) = (   0.4124790   0.0589256  -0.0589256), wk =   0.0277778
        k(   30) = (   0.4714045   0.1178511  -0.1178511), wk =   0.0277778
        k(   31) = (  -0.1767767  -0.5303301   0.5303301), wk =   0.0277778
        k(   32) = (  -0.1178511  -0.4714045   0.4714045), wk =   0.0277778
        k(   33) = (  -0.0589256  -0.4124790   0.4124790), wk =   0.0277778
        k(   34) = (   0.0000000  -0.3535534   0.3535534), wk =   0.0138889
        k(   35) = (   0.4714045   0.0000000   0.0000000), wk =   0.0069444
        k(   36) = (   0.5303301   0.0589256  -0.0589256), wk =   0.0277778
        k(   37) = (  -0.1178511  -0.5892557   0.5892557), wk =   0.0277778
        k(   38) = (  -0.0589256  -0.5303301   0.5303301), wk =   0.0277778
        k(   39) = (  -0.0000000  -0.4714045   0.4714045), wk =   0.0138889
        k(   40) = (   0.5892557   0.0000000   0.0000000), wk =   0.0069444
        k(   41) = (  -0.0589256  -0.6481812   0.6481812), wk =   0.0277778
        k(   42) = (   0.0000000  -0.5892557   0.5892557), wk =   0.0138889
        k(   43) = (  -0.7071068   0.0000000   0.0000000), wk =   0.0034722
        k(   44) = (   0.2357023   0.1178511  -0.0000000), wk =   0.0277778
        k(   45) = (   0.2946278   0.1767767  -0.0589256), wk =   0.0555556
        k(   46) = (   0.3535534   0.2357023  -0.1178511), wk =   0.0555556
        k(   47) = (  -0.2946278  -0.4124790   0.5303301), wk =   0.0555556
        k(   48) = (  -0.2357023  -0.3535534   0.4714045), wk =   0.0277778
        k(   49) = (   0.3535534   0.1178511   0.0000000), wk =   0.0277778
        k(   50) = (   0.4124790   0.1767767  -0.0589256), wk =   0.0555556
        k(   51) = (  -0.2357023  -0.4714045   0.5892557), wk =   0.0555556
        k(   52) = (  -0.1767767  -0.4124790   0.5303301), wk =   0.0555556
        k(   53) = (  -0.1178511  -0.3535534   0.4714045), wk =   0.0555556
        k(   54) = (  -0.0589256  -0.2946278   0.4124790), wk =   0.0555556
        k(   55) = (   0.0000000  -0.2357023   0.3535534), wk =   0.0277778
        k(   56) = (   0.4714045   0.1178511   0.0000000), wk =   0.0277778
        k(   57) = (  -0.1767767  -0.5303301   0.6481812), wk =   0.0555556
        k(   58) = (  -0.1178511  -0.4714045   0.5892557), wk =   0.0555556
        k(   59) = (  -0.0589256  -0.4124790   0.5303301), wk =   0.0555556
        k(   60) = (  -0.0000000  -0.3535534   0.4714045), wk =   0.0277778
        k(   61) = (  -0.1178511  -0.5892557   0.7071068), wk =   0.0277778
        k(   62) = (  -0.0589256  -0.5303301   0.6481812), wk =   0.0555556
        k(   63) = (  -0.0000000  -0.4714045   0.5892557), wk =   0.0277778
        k(   64) = (  -0.7071068   0.1178511   0.0000000), wk =   0.0138889
        k(   65) = (  -0.2357023  -0.4714045   0.7071068), wk =   0.0277778
        k(   66) = (  -0.1767767  -0.4124790   0.6481812), wk =   0.0555556
        k(   67) = (  -0.1178511  -0.3535534   0.5892557), wk =   0.0277778
        k(   68) = (  -0.1178511  -0.4714045   0.7071068), wk =   0.0277778
        k(   69) = (  -0.0589256  -0.4124790   0.6481812), wk =   0.0555556
        k(   70) = (   0.0000000  -0.3535534   0.5892557), wk =   0.0277778
        k(   71) = (  -0.7071068   0.2357023   0.0000000), wk =   0.0138889
        k(   72) = (  -0.7071068   0.3535534   0.0000000), wk =   0.0069444

     Dense  grid:    15065 G-vectors     FFT dimensions: (  36,  36,  36)

     Smooth grid:     3839 G-vectors     FFT dimensions: (  24,  24,  24)

     Estimated max dynamical RAM per process >      12.63 MB

     Estimated total dynamical RAM >      66.33 MB

     Initial potential from superposition of free atoms

     starting charge       2.9975, renormalised to       3.0000
     Starting wfcs are    4 randomized atomic wfcs +    2 random wfcs

     total cpu time spent up to now is        0.4 secs

     Self-consistent Calculation

     iteration #  1     ecut=    40.00 Ry     beta= 0.07
     Davidson diagonalization with overlap
     ethr =  1.00E-02,  avg # of iterations =  5.5

     Threshold (ethr) on eigenvalues was too large:
     Diagonalizing with lowered threshold

     Davidson diagonalization with overlap
     ethr =  2.03E-04,  avg # of iterations =  2.4

     total cpu time spent up to now is        0.6 secs

     total energy              =      -6.70984081 Ry
     estimated scf accuracy    <       0.00608462 Ry

     iteration #  2     ecut=    40.00 Ry     beta= 0.07
     Davidson diagonalization with overlap
     ethr =  2.03E-04,  avg # of iterations =  1.0

     total cpu time spent up to now is        0.7 secs

     total energy              =      -6.70806564 Ry
     estimated scf accuracy    <       0.00513009 Ry

     iteration #  3     ecut=    40.00 Ry     beta= 0.07
     Davidson diagonalization with overlap
     ethr =  1.71E-04,  avg # of iterations =  1.0

     total cpu time spent up to now is        0.8 secs

     total energy              =      -6.70825153 Ry
     estimated scf accuracy    <       0.00001304 Ry

     iteration #  4     ecut=    40.00 Ry     beta= 0.07
     Davidson diagonalization with overlap
     ethr =  4.35E-07,  avg # of iterations =  3.6

     total cpu time spent up to now is        0.9 secs

     total energy              =      -6.70824695 Ry
     estimated scf accuracy    <       0.00001277 Ry

     iteration #  5     ecut=    40.00 Ry     beta= 0.07
     Davidson diagonalization with overlap
     ethr =  4.26E-07,  avg # of iterations =  1.0

     total cpu time spent up to now is        0.9 secs

     total energy              =      -6.70824757 Ry
     estimated scf accuracy    <       0.00000006 Ry

     iteration #  6     ecut=    40.00 Ry     beta= 0.07
     Davidson diagonalization with overlap
     ethr =  2.16E-09,  avg # of iterations =  1.7

     total cpu time spent up to now is        1.0 secs

     total energy              =      -6.70824758 Ry
     estimated scf accuracy    <       0.00000002 Ry

     iteration #  7     ecut=    40.00 Ry     beta= 0.07
     Davidson diagonalization with overlap
     ethr =  6.35E-10,  avg # of iterations =  1.0

     total cpu time spent up to now is        1.1 secs

     End of self-consistent calculation

          k = 0.0000 0.0000 0.0000 (   531 PWs)   bands (ev):

    -3.2586  20.5358  20.5358  21.8320  21.8320  21.8320

          k = 0.0589 0.0589-0.0589 (   495 PWs)   bands (ev):

    -3.0696  17.8985  19.9306  19.9306  22.5474  22.7145

          k = 0.1179 0.1179-0.1179 (   489 PWs)   bands (ev):

    -2.5038  14.5531  19.2207  19.2207  22.3771  23.7656

          k = 0.1768 0.1768-0.1768 (   483 PWs)   bands (ev):

    -1.5651  11.3590  18.7772  18.7772  22.1507  22.5803

          k = 0.2357 0.2357-0.2357 (   492 PWs)   bands (ev):

    -0.2600   8.4147  18.6366  18.6366  21.2088  21.2088

          k = 0.2946 0.2946-0.2946 (   477 PWs)   bands (ev):

     1.4019   5.7609  18.8063  18.8063  20.1054  20.1054

          k =-0.3536-0.3536 0.3536 (   476 PWs)   bands (ev):

     3.2907   3.5403  19.2138  19.2138  19.3841  19.3841

          k = 0.1179 0.0000 0.0000 (   495 PWs)   bands (ev):

    -3.0066  18.7799  18.7799  19.1178  21.2646  23.9359

          k = 0.1768 0.0589-0.0589 (   489 PWs)   bands (ev):

    -2.5666  15.7546  17.9040  19.1879  21.6203  22.7009

          k = 0.2357 0.1179-0.1179 (   482 PWs)   bands (ev):

    -1.7525  12.5317  17.3348  18.8370  20.6141  23.4564

          k = 0.2946 0.1768-0.1768 (   479 PWs)   bands (ev):

    -0.5699   9.5130  17.0798  18.6381  19.0765  23.4560

          k = 0.3536 0.2357-0.2357 (   472 PWs)   bands (ev):

     0.9726   6.7663  17.1419  17.8219  18.7353  22.2833

          k =-0.2946-0.4125 0.4125 (   473 PWs)   bands (ev):

     2.8578   4.3304  16.8869  17.5219  19.1495  21.3935

          k =-0.2357-0.3536 0.3536 (   476 PWs)   bands (ev):

     2.1943   5.1037  16.2772  18.2181  19.8872  20.8107

          k =-0.1768-0.2946 0.2946 (   479 PWs)   bands (ev):

     0.4193   7.6472  15.9977  19.2186  20.5486  20.9385

          k =-0.1179-0.2357 0.2357 (   483 PWs)   bands (ev):

    -1.0045  10.4845  16.0516  20.3392  20.7706  22.2762

          k =-0.0589-0.1768 0.1768 (   485 PWs)   bands (ev):

    -2.0651  13.5603  16.4514  20.8042  22.0870  23.2814

          k =-0.0000-0.1179 0.1179 (   489 PWs)   bands (ev):

    -2.7550  16.5275  17.4417  21.0217  22.0896  23.1526

          k = 0.2357 0.0000 0.0000 (   488 PWs)   bands (ev):

    -2.2530  16.8989  16.8989  17.1000  20.0119  20.3822

          k = 0.2946 0.0589-0.0589 (   482 PWs)   bands (ev):

    -1.5653  13.9562  16.2116  17.5295  18.3189  20.4797

          k = 0.3536 0.1179-0.1179 (   481 PWs)   bands (ev):

    -0.5083  10.9216  15.8439  16.5814  17.4705  22.2889

          k = 0.4125 0.1768-0.1768 (   473 PWs)   bands (ev):

     0.9102   8.1069  15.1912  15.7963  17.4979  24.5114

          k =-0.2357-0.4714 0.4714 (   468 PWs)   bands (ev):

     2.6772   5.5779  14.1230  16.0691  17.8282  23.7927

          k =-0.1768-0.4125 0.4125 (   471 PWs)   bands (ev):

     3.3396   4.8029  13.3926  16.6621  18.4873  23.1171

          k =-0.1179-0.3536 0.3536 (   470 PWs)   bands (ev):

     1.4625   7.2133  13.0133  17.5729  19.4723  22.7441

          k =-0.0589-0.2946 0.2946 (   481 PWs)   bands (ev):

    -0.0747   9.8880  13.0227  18.7935  20.7615  22.6586

          k = 0.0000-0.2357 0.2357 (   483 PWs)   bands (ev):

    -1.2535  12.4122  13.7924  20.2945  22.2989  22.4740

          k = 0.3536 0.0000 0.0000 (   480 PWs)   bands (ev):

    -1.0051  15.4104  15.4104  15.4228  16.1576  18.7888

          k = 0.4125 0.0589-0.0589 (   475 PWs)   bands (ev):

    -0.0759  12.5796  14.3006  14.9312  16.1907  19.3143

          k = 0.4714 0.1179-0.1179 (   468 PWs)   bands (ev):

     1.2146   9.7549  12.7691  14.7740  16.3411  21.3310

          k =-0.1768-0.5303 0.5303 (   472 PWs)   bands (ev):

     2.8536   7.1607  11.5708  14.9386  16.6110  23.8633

          k =-0.1179-0.4714 0.4714 (   473 PWs)   bands (ev):

     4.7000   4.9799  10.7259  15.4249  17.1824  25.7235

          k =-0.0589-0.4125 0.4125 (   477 PWs)   bands (ev):

     2.8610   7.0794  10.2825  16.2321  18.0804  25.2609

          k = 0.0000-0.3536 0.3536 (   481 PWs)   bands (ev):

     1.2175   9.1636  10.6580  17.3577  19.2909  24.8707

          k = 0.4714 0.0000 0.0000 (   472 PWs)   bands (ev):

     0.7234  12.2950  14.2023  14.3418  14.3418  17.7587

          k = 0.5303 0.0589-0.0589 (   467 PWs)   bands (ev):

     1.8814  10.6082  11.6840  14.0751  15.2576  18.4850

          k =-0.1179-0.5893 0.5893 (   472 PWs)   bands (ev):

     3.3815   8.9562   9.4180  14.1310  15.6397  20.7268

          k =-0.0589-0.5303 0.5303 (   474 PWs)   bands (ev):

     5.1694   6.6731   8.4161  14.5094  16.1492  23.4996

          k =-0.0000-0.4714 0.4714 (   466 PWs)   bands (ev):

     4.5996   6.8334   8.3091  15.2101  16.9583  26.4192

          k = 0.5893 0.0000 0.0000 (   464 PWs)   bands (ev):

     2.8986   8.8276  13.4649  13.6993  13.6993  17.1014

          k =-0.0589-0.6482 0.6482 (   467 PWs)   bands (ev):

     4.2235   7.4154  11.2103  13.6465  14.7867  18.0556

          k = 0.0000-0.5893 0.5893 (   470 PWs)   bands (ev):

     5.4327   6.8001   8.8587  13.9166  15.4026  20.5212

          k =-0.7071 0.0000 0.0000 (   468 PWs)   bands (ev):

     4.9654   6.3287  13.2184  13.4850  13.4850  16.8764

          k = 0.2357 0.1179-0.0000 (   484 PWs)   bands (ev):

    -2.0026  14.4861  15.6250  19.8913  20.4149  21.6518

          k = 0.2946 0.1768-0.0589 (   480 PWs)   bands (ev):

    -1.0669  11.7336  14.7513  18.6937  20.0540  22.9202

          k = 0.3536 0.2357-0.1179 (   473 PWs)   bands (ev):

     0.2339   8.8558  14.5427  17.2219  20.0169  22.7016

          k =-0.2946-0.4125 0.5303 (   471 PWs)   bands (ev):

     1.8895   6.2273  14.6949  16.0664  20.2194  21.6107

          k =-0.2357-0.3536 0.4714 (   468 PWs)   bands (ev):

     3.7623   4.0274  15.0662  15.3605  20.5795  20.9432

          k = 0.3536 0.1179 0.0000 (   475 PWs)   bands (ev):

    -0.7565  12.8776  14.1064  16.3995  18.3910  20.3821

          k = 0.4125 0.1768-0.0589 (   472 PWs)   bands (ev):

     0.4179  10.3437  13.4014  14.7921  18.8246  21.9139

          k =-0.2357-0.4714 0.5893 (   473 PWs)   bands (ev):

     1.9482   7.6795  13.2456  13.6557  19.0354  23.8672

          k =-0.1768-0.4125 0.5303 (   473 PWs)   bands (ev):

     3.8134   5.2800  12.4646  13.8562  19.4792  23.2494

          k =-0.1179-0.3536 0.4714 (   471 PWs)   bands (ev):

     3.1611   6.0299  11.8687  14.5704  20.2185  22.6526

          k =-0.0589-0.2946 0.4125 (   479 PWs)   bands (ev):

     1.4007   8.4872  11.6593  15.6285  21.2364  22.3099

          k = 0.0000-0.2357 0.3536 (   480 PWs)   bands (ev):

    -0.0131  10.7909  12.2399  17.0108  21.7476  22.3988

          k = 0.4714 0.1179 0.0000 (   469 PWs)   bands (ev):

     0.9692  11.7213  12.4375  13.1235  17.2714  19.4070

          k =-0.1768-0.5303 0.6482 (   472 PWs)   bands (ev):

     2.3685   9.4017  11.0838  12.5752  17.9476  21.1503

          k =-0.1179-0.4714 0.5893 (   473 PWs)   bands (ev):

     4.1014   6.9668  10.0198  12.7878  18.3924  23.7185

          k =-0.0589-0.4125 0.5303 (   471 PWs)   bands (ev):

     4.7706   6.1411   9.3418  13.3924  19.0649  25.2495

          k =-0.0000-0.3536 0.4714 (   476 PWs)   bands (ev):

     2.9202   7.9993   9.4861  14.3452  20.0268  24.4958

          k =-0.1179-0.5893 0.7071 (   467 PWs)   bands (ev):

     3.1403   9.0547  11.0252  12.3773  16.5918  18.7877

          k =-0.0589-0.5303 0.6482 (   474 PWs)   bands (ev):

     4.6994   7.8660   8.9844  12.1009  17.5001  20.7506

          k =-0.0000-0.4714 0.5893 (   473 PWs)   bands (ev):

     6.1333   6.6644   7.6314  12.5560  18.1731  23.5533

          k =-0.7071 0.1179 0.0000 (   472 PWs)   bands (ev):

     5.1990   6.5696  10.7928  12.1478  16.3646  18.5762

          k =-0.2357-0.4714 0.7071 (   477 PWs)   bands (ev):

     1.7041   9.6295  11.0736  13.2735  20.6975  22.2143

          k =-0.1768-0.4125 0.6482 (   476 PWs)   bands (ev):

     3.3373   7.5467  10.6965  12.1003  21.4599  22.8759

          k =-0.1179-0.3536 0.5893 (   478 PWs)   bands (ev):

     5.1665   5.4441  10.9298  11.4699  21.8361  22.3483

          k =-0.1179-0.4714 0.7071 (   472 PWs)   bands (ev):

     3.8628   8.9316   9.6438  10.5780  20.0364  21.7188

          k =-0.0589-0.4125 0.6482 (   475 PWs)   bands (ev):

     5.6431   7.0666   8.8264  10.3636  21.0583  23.8245

          k = 0.0000-0.3536 0.5893 (   473 PWs)   bands (ev):

     5.0562   7.3000   8.7476  11.0178  21.8528  23.8868

          k =-0.7071 0.2357 0.0000 (   478 PWs)   bands (ev):

     5.8998   7.2738   8.6987  10.2497  19.8135  21.5363

          k =-0.7071 0.3536 0.0000 (   464 PWs)   bands (ev):

     7.0668   7.0668   8.1009   8.9958  23.6742  24.0726

     the Fermi energy is     7.7783 ev

!    total energy              =      -6.70824760 Ry
     estimated scf accuracy    <          1.8E-09 Ry
     smearing contrib. (-TS)   =       0.00005795 Ry
     internal energy E=F+TS    =      -6.70830555 Ry

     The total energy is F=E-TS. E is the sum of the following terms:
     one-electron contribution =       2.98234332 Ry
     hartree contribution      =       0.00845009 Ry
     xc contribution           =      -4.29418789 Ry
     ewald contribution        =      -5.40491107 Ry

     convergence has been achieved in   7 iterations

     Forces acting on atoms (cartesian axes, Ry/au):

     atom    1 type  1   force =     0.00000000    0.00000000    0.00000000

     Total force =     0.000000     Total SCF correction =     0.000000

     Writing all to output data dir ./data/scf.save/
 
     init_run     :      0.13s CPU      0.30s WALL (       1 calls)
     electrons    :      0.61s CPU      0.65s WALL (       1 calls)
     forces       :      0.02s CPU      0.02s WALL (       1 calls)

     Called by init_run:
     wfcinit      :      0.02s CPU      0.12s WALL (       1 calls)
     potinit      :      0.01s CPU      0.02s WALL (       1 calls)
     hinit0       :      0.08s CPU      0.14s WALL (       1 calls)

     Called by electrons:
     c_bands      :      0.38s CPU      0.41s WALL (       8 calls)
     sum_band     :      0.11s CPU      0.12s WALL (       8 calls)
     v_of_rho     :      0.10s CPU      0.10s WALL (       8 calls)
     newd         :      0.02s CPU      0.02s WALL (       8 calls)
     mix_rho      :      0.01s CPU      0.01s WALL (       8 calls)

     Called by c_bands:
     init_us_2    :      0.01s CPU      0.01s WALL (     198 calls)
     init_us_2:cp :      0.01s CPU      0.01s WALL (     198 calls)
     cegterg      :      0.33s CPU      0.35s WALL (      88 calls)

     Called by *egterg:
     cdiaghg      :      0.01s CPU      0.03s WALL (     313 calls)
     h_psi        :      0.31s CPU      0.40s WALL (     335 calls)
     s_psi        :      0.00s CPU      0.00s WALL (     335 calls)
     g_psi        :      0.00s CPU      0.00s WALL (     236 calls)

     Called by h_psi:
     h_psi:calbec :      0.01s CPU      0.01s WALL (     335 calls)
     vloc_psi     :      0.30s CPU      0.30s WALL (     335 calls)
     add_vuspsi   :      0.00s CPU      0.09s WALL (     335 calls)

     General routines
     calbec       :      0.01s CPU      0.01s WALL (     467 calls)
     fft          :      0.04s CPU      0.05s WALL (     114 calls)
     ffts         :      0.00s CPU      0.00s WALL (      16 calls)
     fftw         :      0.33s CPU      0.33s WALL (    3414 calls)
     interpolate  :      0.00s CPU      0.00s WALL (       8 calls)
 
     Parallel routines
 
     PWSCF        :      0.83s CPU      1.15s WALL

 
   This run was terminated on:  18:53:14  10Jun2026            

=------------------------------------------------------------------------------=
   JOB DONE.
=------------------------------------------------------------------------------=
