
     Program BANDS v.7.1 starts on 31May2026 at 21:58: 4 

     This program is part of the open-source Quantum ESPRESSO suite
     for quantum simulation of materials; please cite
         "P. Giannozzi et al., J. Phys.:Condens. Matter 21 395502 (2009);
         "P. Giannozzi et al., J. Phys.:Condens. Matter 29 465901 (2017);
         "P. Giannozzi et al., J. Chem. Phys. 152 154105 (2020);
          URL http://www.quantum-espresso.org", 
     in publications or presentations arising from this work. More details at
     http://www.quantum-espresso.org/quote

     Parallel version (MPI & OpenMP), running on       7 processor cores
     Number of MPI processes:                 7
     Threads/MPI process:                     1

     MPI processes distributed on     7 nodes
     R & G space division:  proc/nbgrp/npool/nimage =       7
     224564 MiB available memory on the printing compute node when the environment starts
 

     Reading xml data from directory:

     ./data/scf.save/

     IMPORTANT: XC functional enforced from input :
     Exchange-correlation= PBE
                           (   1   4   3   4   0   0   0)
     Any further DFT definition will be discarded
     Please, verify this is what you really want

 
     Parallelization info
     --------------------
     sticks:   dense  smooth     PW     G-vecs:    dense   smooth      PW
     Min         150      59     19                 3130      783     150
     Max         151      60     20                 3133      783     151
     Sum        1051     419    137                21913     5481    1055
 
     Using Slab Decomposition
 
     Reading collected, re-writing distributed wavefunctions
     high-symmetry point:  0.4330 0.4330 0.4330   x coordinate   0.0000
     high-symmetry point:  0.0000 0.0000 0.0000   x coordinate   0.7500
     high-symmetry point:  0.4330 0.0000 0.4330   x coordinate   1.3624
     high-symmetry point:  0.8660 0.0000 0.0000   x coordinate   1.9747
     high-symmetry point:  0.0000 0.0000 0.0000   x coordinate   2.8408

     Plottable bands (eV) written to file bccLi.bands.dat.gnu
     Bands written to file bccLi.bands.dat

 **************************************************************************

                    xk=(   0.43301,   0.43301,   0.43301  )

     point group T_d (-43m) 
     there are  5 classes
     the character table:

       E     8C3   3C2   6S4   6s_d 
A_1    1.00  1.00  1.00  1.00  1.00
A_2    1.00  1.00  1.00 -1.00 -1.00
E      2.00 -1.00  2.00  0.00  0.00
T_1    3.00  0.00 -1.00  1.00 -1.00
T_2    3.00  0.00 -1.00 -1.00  1.00

     the symmetry operations in each class and the name of the first element:

     E        1
                                                                 
     8C3      5    7    8    6   12    9   10   11
                                                                 
     3C2      2    3    4
                                                                 
     6S4     15   16   20   19   23   24
                                                                 
     6s_d    13   14   17   18   21   22
                                                                 

     Band symmetry, T_d (-43m)  point group:

     e(  1 -  1) =    -45.55302  eV     1   --> A_1  G_1  P_1  
     e(  2 -  4) =      4.32640  eV     3   --> T_2  G_15 P_4  
     e(  5 -  5) =      9.35636  eV     1   --> A_1  G_1  P_1  
     e(  6 -  8) =     24.57769  eV     3   --> T_2  G_15 P_4  
     e(  9 - 10) =     29.45684  eV     2   --> E    G_12 P_3  

 **************************************************************************

 **************************************************************************

                    xk=(   0.43121,   0.43121,   0.43121  )

     point group C_3v (3m)  
     there are  3 classes
     the character table:

       E     2C3   3s_v 
A_1    1.00  1.00  1.00
A_2    1.00  1.00 -1.00
E      2.00 -1.00  0.00

     the symmetry operations in each class and the name of the first element:

     E        1
                                                                 
     2C3      2    3
                                                                 
     3s_v     4    5    6
                                                                 

     Band symmetry, C_3v (3m)   point group:

     e(  1 -  1) =    -45.55302  eV     1   --> A_1  L_1       
     e(  2 -  2) =      4.27423  eV     1   --> A_1  L_1       
     e(  3 -  4) =      4.35264  eV     2   --> E    L_3       
     e(  5 -  5) =      9.35654  eV     1   --> A_1  L_1       
     e(  6 -  7) =     24.55320  eV     2   --> E    L_3       
     e(  8 -  8) =     24.62506  eV     1   --> A_1  L_1       
     e(  9 - 10) =     29.45385  eV     2   --> E    L_3       

 **************************************************************************

 **************************************************************************

                    xk=(   0.42940,   0.42940,   0.42940  )

     Band symmetry, C_3v (3m)   point group:

     e(  1 -  1) =    -45.55302  eV     1   --> A_1  L_1       
     e(  2 -  2) =      4.22203  eV     1   --> A_1  L_1       
     e(  3 -  4) =      4.37920  eV     2   --> E    L_3       
     e(  5 -  5) =      9.35709  eV     1   --> A_1  L_1       
     e(  6 -  7) =     24.52739  eV     2   --> E    L_3       
     e(  8 -  8) =     24.67189  eV     1   --> A_1  L_1       
     e(  9 - 10) =     29.44523  eV     2   --> E    L_3       

 **************************************************************************

 **************************************************************************

                    xk=(   0.42760,   0.42760,   0.42760  )

     Band symmetry, C_3v (3m)   point group:

     e(  1 -  1) =    -45.55302  eV     1   --> A_1  L_1       
     e(  2 -  2) =      4.16981  eV     1   --> A_1  L_1       
     e(  3 -  4) =      4.40608  eV     2   --> E    L_3       
     e(  5 -  5) =      9.35799  eV     1   --> A_1  L_1       
     e(  6 -  7) =     24.50030  eV     2   --> E    L_3       
     e(  8 -  8) =     24.71817  eV     1   --> A_1  L_1       
     e(  9 - 10) =     29.43141  eV     2   --> E    L_3       

 **************************************************************************

 **************************************************************************

                    xk=(   0.42580,   0.42580,   0.42580  )

     Band symmetry, C_3v (3m)   point group:

     e(  1 -  1) =    -45.55302  eV     1   --> A_1  L_1       
     e(  2 -  2) =      4.11758  eV     1   --> A_1  L_1       
     e(  3 -  4) =      4.43328  eV     2   --> E    L_3       
     e(  5 -  5) =      9.35924  eV     1   --> A_1  L_1       
     e(  6 -  7) =     24.47200  eV     2   --> E    L_3       
     e(  8 -  8) =     24.76388  eV     1   --> A_1  L_1       
     e(  9 - 10) =     29.41274  eV     2   --> E    L_3       

 **************************************************************************

 **************************************************************************

                    xk=(   0.42399,   0.42399,   0.42399  )

     Band symmetry, C_3v (3m)   point group:

     e(  1 -  1) =    -45.55302  eV     1   --> A_1  L_1       
     e(  2 -  2) =      4.06535  eV     1   --> A_1  L_1       
     e(  3 -  4) =      4.46080  eV     2   --> E    L_3       
     e(  5 -  5) =      9.36082  eV     1   --> A_1  L_1       
     e(  6 -  7) =     24.44252  eV     2   --> E    L_3       
     e(  8 -  8) =     24.80903  eV     1   --> A_1  L_1       
     e(  9 - 10) =     29.38949  eV     2   --> E    L_3       

 **************************************************************************

 **************************************************************************

                    xk=(   0.42219,   0.42219,   0.42219  )

     Band symmetry, C_3v (3m)   point group:

     e(  1 -  1) =    -45.55302  eV     1   --> A_1  L_1       
     e(  2 -  2) =      4.01313  eV     1   --> A_1  L_1       
     e(  3 -  4) =      4.48865  eV     2   --> E    L_3       
     e(  5 -  5) =      9.36274  eV     1   --> A_1  L_1       
     e(  6 -  7) =     24.41191  eV     2   --> E    L_3       
     e(  8 -  8) =     24.85360  eV     1   --> A_1  L_1       
     e(  9 - 10) =     29.36188  eV     2   --> E    L_3       

 **************************************************************************

 **************************************************************************

                    xk=(   0.42038,   0.42038,   0.42038  )

     Band symmetry, C_3v (3m)   point group:

     e(  1 -  1) =    -45.55303  eV     1   --> A_1  L_1       
     e(  2 -  2) =      3.96092  eV     1   --> A_1  L_1       
     e(  3 -  4) =      4.51681  eV     2   --> E    L_3       
     e(  5 -  5) =      9.36499  eV     1   --> A_1  L_1       
     e(  6 -  7) =     24.38022  eV     2   --> E    L_3       
     e(  8 -  8) =     24.89758  eV     1   --> A_1  L_1       
     e(  9 - 10) =     29.33013  eV     2   --> E    L_3       

 **************************************************************************

 **************************************************************************

                    xk=(   0.41858,   0.41858,   0.41858  )

     Band symmetry, C_3v (3m)   point group:

     e(  1 -  1) =    -45.55303  eV     1   --> A_1  L_1       
     e(  2 -  2) =      3.90875  eV     1   --> A_1  L_1       
     e(  3 -  4) =      4.54530  eV     2   --> E    L_3       
     e(  5 -  5) =      9.36755  eV     1   --> A_1  L_1       
     e(  6 -  7) =     24.34749  eV     2   --> E    L_3       
     e(  8 -  8) =     24.94097  eV     1   --> A_1  L_1       
     e(  9 - 10) =     29.29444  eV     2   --> E    L_3       

 **************************************************************************

 **************************************************************************

                    xk=(   0.41677,   0.41677,   0.41677  )

     Band symmetry, C_3v (3m)   point group:

     e(  1 -  1) =    -45.55303  eV     1   --> A_1  L_1       
     e(  2 -  2) =      3.85660  eV     1   --> A_1  L_1       
     e(  3 -  4) =      4.57411  eV     2   --> E    L_3       
     e(  5 -  5) =      9.37043  eV     1   --> A_1  L_1       
     e(  6 -  7) =     24.31376  eV     2   --> E    L_3       
     e(  8 -  8) =     24.98377  eV     1   --> A_1  L_1       
     e(  9 - 10) =     29.25506  eV     2   --> E    L_3       

 **************************************************************************

 **************************************************************************

                    xk=(   0.41497,   0.41497,   0.41497  )

     Band symmetry, C_3v (3m)   point group:

     e(  1 -  1) =    -45.55304  eV     1   --> A_1  L_1       
     e(  2 -  2) =      3.80450  eV     1   --> A_1  L_1       
     e(  3 -  4) =      4.60324  eV     2   --> E    L_3       
     e(  5 -  5) =      9.37362  eV     1   --> A_1  L_1       
     e(  6 -  7) =     24.27907  eV     2   --> E    L_3       
     e(  8 -  8) =     25.02596  eV     1   --> A_1  L_1       
     e(  9 - 10) =     29.21225  eV     2   --> E    L_3       

 **************************************************************************

 **************************************************************************

                    xk=(   0.41317,   0.41317,   0.41317  )

     Band symmetry, C_3v (3m)   point group:

     e(  1 -  1) =    -45.55304  eV     1   --> A_1  L_1       
     e(  2 -  2) =      3.75245  eV     1   --> A_1  L_1       
     e(  3 -  4) =      4.63269  eV     2   --> E    L_3       
     e(  5 -  5) =      9.37710  eV     1   --> A_1  L_1       
     e(  6 -  7) =     24.24347  eV     2   --> E    L_3       
     e(  8 -  8) =     25.06756  eV     1   --> A_1  L_1       
     e(  9 - 10) =     29.16630  eV     2   --> E    L_3       

 **************************************************************************

 **************************************************************************

                    xk=(   0.41136,   0.41136,   0.41136  )

     Band symmetry, C_3v (3m)   point group:

     e(  1 -  1) =    -45.55305  eV     1   --> A_1  L_1       
     e(  2 -  2) =      3.70046  eV     1   --> A_1  L_1       
     e(  3 -  4) =      4.66246  eV     2   --> E    L_3       
     e(  5 -  5) =      9.38089  eV     1   --> A_1  L_1       
     e(  6 -  7) =     24.20700  eV     2   --> E    L_3       
     e(  8 -  8) =     25.10855  eV     1   --> A_1  L_1       
     e(  9 - 10) =     29.11751  eV     2   --> E    L_3       

 **************************************************************************

 **************************************************************************

                    xk=(   0.40956,   0.40956,   0.40956  )

     Band symmetry, C_3v (3m)   point group:

     e(  1 -  1) =    -45.55306  eV     1   --> A_1  L_1       
     e(  2 -  2) =      3.64854  eV     1   --> A_1  L_1       
     e(  3 -  4) =      4.69256  eV     2   --> E    L_3       
     e(  5 -  5) =      9.38497  eV     1   --> A_1  L_1       
     e(  6 -  7) =     24.16969  eV     2   --> E    L_3       
     e(  8 -  8) =     25.14893  eV     1   --> A_1  L_1       
     e(  9 - 10) =     29.06621  eV     2   --> E    L_3       

 **************************************************************************

 **************************************************************************

                    xk=(   0.40775,   0.40775,   0.40775  )

     Band symmetry, C_3v (3m)   point group:

     e(  1 -  1) =    -45.55307  eV     1   --> A_1  L_1       
     e(  2 -  2) =      3.59669  eV     1   --> A_1  L_1       
     e(  3 -  4) =      4.72297  eV     2   --> E    L_3       
     e(  5 -  5) =      9.38933  eV     1   --> A_1  L_1       
     e(  6 -  7) =     24.13159  eV     2   --> E    L_3       
     e(  8 -  8) =     25.18872  eV     1   --> A_1  L_1       
     e(  9 - 10) =     29.01268  eV     2   --> E    L_3       

 **************************************************************************

 **************************************************************************

                    xk=(   0.40595,   0.40595,   0.40595  )

     Band symmetry, C_3v (3m)   point group:

     e(  1 -  1) =    -45.55307  eV     1   --> A_1  L_1       
     e(  2 -  2) =      3.54491  eV     1   --> A_1  L_1       
     e(  3 -  4) =      4.75370  eV     2   --> E    L_3       
     e(  5 -  5) =      9.39398  eV     1   --> A_1  L_1       
     e(  6 -  7) =     24.09272  eV     2   --> E    L_3       
     e(  8 -  8) =     25.22790  eV     1   --> A_1  L_1       
     e(  9 - 10) =     28.95721  eV     2   --> E    L_3       

 **************************************************************************

 **************************************************************************

                    xk=(   0.40415,   0.40415,   0.40415  )

     Band symmetry, C_3v (3m)   point group:

     e(  1 -  1) =    -45.55308  eV     1   --> A_1  L_1       
     e(  2 -  2) =      3.49322  eV     1   --> A_1  L_1       
     e(  3 -  4) =      4.78476  eV     2   --> E    L_3       
     e(  5 -  5) =      9.39891  eV     1   --> A_1  L_1       
     e(  6 -  7) =     24.05313  eV     2   --> E    L_3       
     e(  8 -  8) =     25.26643  eV     1   --> A_1  L_1       
     e(  9 - 10) =     28.90008  eV     2   --> E    L_3       

 **************************************************************************

 **************************************************************************

                    xk=(   0.40234,   0.40234,   0.40234  )

     Band symmetry, C_3v (3m)   point group:

     e(  1 -  1) =    -45.55309  eV     1   --> A_1  L_1       
     e(  2 -  2) =      3.44163  eV     1   --> A_1  L_1       
     e(  3 -  4) =      4.81613  eV     2   --> E    L_3       
     e(  5 -  5) =      9.40411  eV     1   --> A_1  L_1       
     e(  6 -  7) =     24.01286  eV     2   --> E    L_3       
     e(  8 -  8) =     25.30442  eV     1   --> A_1  L_1       
     e(  9 - 10) =     28.84151  eV     2   --> E    L_3       

 **************************************************************************

 **************************************************************************

                    xk=(   0.40054,   0.40054,   0.40054  )

     Band symmetry, C_3v (3m)   point group:

     e(  1 -  1) =    -45.55310  eV     1   --> A_1  L_1       
     e(  2 -  2) =      3.39013  eV     1   --> A_1  L_1       
     e(  3 -  4) =      4.84783  eV     2   --> E    L_3       
     e(  5 -  5) =      9.40959  eV     1   --> A_1  L_1       
     e(  6 -  7) =     23.97192  eV     2   --> E    L_3       
     e(  8 -  8) =     25.34182  eV     1   --> A_1  L_1       
     e(  9 - 10) =     28.78173  eV     2   --> E    L_3       

 **************************************************************************

 **************************************************************************

                    xk=(   0.39873,   0.39873,   0.39873  )

     Band symmetry, C_3v (3m)   point group:

     e(  1 -  1) =    -45.55312  eV     1   --> A_1  L_1       
     e(  2 -  2) =      3.33873  eV     1   --> A_1  L_1       
     e(  3 -  4) =      4.87984  eV     2   --> E    L_3       
     e(  5 -  5) =      9.41533  eV     1   --> A_1  L_1       
     e(  6 -  7) =     23.93036  eV     2   --> E    L_3       
     e(  8 -  8) =     25.37861  eV     1   --> A_1  L_1       
     e(  9 - 10) =     28.72091  eV     2   --> E    L_3       

 **************************************************************************

 **************************************************************************

                    xk=(   0.39693,   0.39693,   0.39693  )

     Band symmetry, C_3v (3m)   point group:

     e(  1 -  1) =    -45.55313  eV     1   --> A_1  L_1       
     e(  2 -  2) =      3.28745  eV     1   --> A_1  L_1       
     e(  3 -  4) =      4.91218  eV     2   --> E    L_3       
     e(  5 -  5) =      9.42134  eV     1   --> A_1  L_1       
     e(  6 -  7) =     23.88822  eV     2   --> E    L_3       
     e(  8 -  8) =     25.41485  eV     1   --> A_1  L_1       
     e(  9 - 10) =     28.65923  eV     2   --> E    L_3       

 **************************************************************************

 **************************************************************************

                    xk=(   0.39512,   0.39512,   0.39512  )

     Band symmetry, C_3v (3m)   point group:

     e(  1 -  1) =    -45.55314  eV     1   --> A_1  L_1       
     e(  2 -  2) =      3.23628  eV     1   --> A_1  L_1       
     e(  3 -  4) =      4.94484  eV     2   --> E    L_3       
     e(  5 -  5) =      9.42761  eV     1   --> A_1  L_1       
     e(  6 -  7) =     23.84551  eV     2   --> E    L_3       
     e(  8 -  8) =     25.45052  eV     1   --> A_1  L_1       
     e(  9 - 10) =     28.59683  eV     2   --> E    L_3       

 **************************************************************************

 **************************************************************************

                    xk=(   0.39332,   0.39332,   0.39332  )

     Band symmetry, C_3v (3m)   point group:

     e(  1 -  1) =    -45.55316  eV     1   --> A_1  L_1       
     e(  2 -  2) =      3.18522  eV     1   --> A_1  L_1       
     e(  3 -  4) =      4.97781  eV     2   --> E    L_3       
     e(  5 -  5) =      9.43414  eV     1   --> A_1  L_1       
     e(  6 -  7) =     23.80228  eV     2   --> E    L_3       
     e(  8 -  8) =     25.48564  eV     1   --> A_1  L_1       
     e(  9 - 10) =     28.53384  eV     2   --> E    L_3       

 **************************************************************************

 **************************************************************************

                    xk=(   0.39152,   0.39152,   0.39152  )

     Band symmetry, C_3v (3m)   point group:

     e(  1 -  1) =    -45.55317  eV     1   --> A_1  L_1       
     e(  2 -  2) =      3.13429  eV     1   --> A_1  L_1       
     e(  3 -  4) =      5.01111  eV     2   --> E    L_3       
     e(  5 -  5) =      9.44093  eV     1   --> A_1  L_1       
     e(  6 -  7) =     23.75855  eV     2   --> E    L_3       
     e(  8 -  8) =     25.52020  eV     1   --> A_1  L_1       
     e(  9 - 10) =     28.47036  eV     2   --> E    L_3       

 **************************************************************************

 **************************************************************************

                    xk=(   0.38971,   0.38971,   0.38971  )

     Band symmetry, C_3v (3m)   point group:

     e(  1 -  1) =    -45.55319  eV     1   --> A_1  L_1       
     e(  2 -  2) =      3.08349  eV     1   --> A_1  L_1       
     e(  3 -  4) =      5.04472  eV     2   --> E    L_3       
     e(  5 -  5) =      9.44797  eV     1   --> A_1  L_1       
     e(  6 -  7) =     23.71434  eV     2   --> E    L_3       
     e(  8 -  8) =     25.55422  eV     1   --> A_1  L_1       
     e(  9 - 10) =     28.40648  eV     2   --> E    L_3       

 **************************************************************************

 **************************************************************************

                    xk=(   0.38791,   0.38791,   0.38791  )

     Band symmetry, C_3v (3m)   point group:

     e(  1 -  1) =    -45.55321  eV     1   --> A_1  L_1       
     e(  2 -  2) =      3.03283  eV     1   --> A_1  L_1       
     e(  3 -  4) =      5.07865  eV     2   --> E    L_3       
     e(  5 -  5) =      9.45526  eV     1   --> A_1  L_1       
     e(  6 -  7) =     23.66970  eV     2   --> E    L_3       
     e(  8 -  8) =     25.58772  eV     1   --> A_1  L_1       
     e(  9 - 10) =     28.34229  eV     2   --> E    L_3       

 **************************************************************************

 **************************************************************************

                    xk=(   0.38610,   0.38610,   0.38610  )

     Band symmetry, C_3v (3m)   point group:

     e(  1 -  1) =    -45.55322  eV     1   --> A_1  L_1       
     e(  2 -  2) =      2.98230  eV     1   --> A_1  L_1       
     e(  3 -  4) =      5.11291  eV     2   --> E    L_3       
     e(  5 -  5) =      9.46281  eV     1   --> A_1  L_1       
     e(  6 -  7) =     23.62463  eV     2   --> E    L_3       
     e(  8 -  8) =     25.62069  eV     1   --> A_1  L_1       
     e(  9 - 10) =     28.27786  eV     2   --> E    L_3       

 **************************************************************************

 **************************************************************************

                    xk=(   0.38430,   0.38430,   0.38430  )

     Band symmetry, C_3v (3m)   point group:

     e(  1 -  1) =    -45.55324  eV     1   --> A_1  L_1       
     e(  2 -  2) =      2.93191  eV     1   --> A_1  L_1       
     e(  3 -  4) =      5.14748  eV     2   --> E    L_3       
     e(  5 -  5) =      9.47059  eV     1   --> A_1  L_1       
     e(  6 -  7) =     23.57918  eV     2   --> E    L_3       
     e(  8 -  8) =     25.65316  eV     1   --> A_1  L_1       
     e(  9 - 10) =     28.21325  eV     2   --> E    L_3       

 **************************************************************************

 **************************************************************************

                    xk=(   0.38249,   0.38249,   0.38249  )

     Band symmetry, C_3v (3m)   point group:

     e(  1 -  1) =    -45.55326  eV     1   --> A_1  L_1       
     e(  2 -  2) =      2.88167  eV     1   --> A_1  L_1       
     e(  3 -  4) =      5.18237  eV     2   --> E    L_3       
     e(  5 -  5) =      9.47863  eV     1   --> A_1  L_1       
     e(  6 -  7) =     23.53336  eV     2   --> E    L_3       
     e(  8 -  8) =     25.68514  eV     1   --> A_1  L_1       
     e(  9 - 10) =     28.14851  eV     2   --> E    L_3       

 **************************************************************************

 **************************************************************************

                    xk=(   0.38069,   0.38069,   0.38069  )

     Band symmetry, C_3v (3m)   point group:

     e(  1 -  1) =    -45.55329  eV     1   --> A_1  L_1       
     e(  2 -  2) =      2.83158  eV     1   --> A_1  L_1       
     e(  3 -  4) =      5.21758  eV     2   --> E    L_3       
     e(  5 -  5) =      9.48691  eV     1   --> A_1  L_1       
     e(  6 -  7) =     23.48720  eV     2   --> E    L_3       
     e(  8 -  8) =     25.71663  eV     1   --> A_1  L_1       
     e(  9 - 10) =     28.08370  eV     2   --> E    L_3       

 **************************************************************************

 **************************************************************************

                    xk=(   0.37889,   0.37889,   0.37889  )

     Band symmetry, C_3v (3m)   point group:

     e(  1 -  1) =    -45.55331  eV     1   --> A_1  L_1       
     e(  2 -  2) =      2.78164  eV     1   --> A_1  L_1       
     e(  3 -  4) =      5.25310  eV     2   --> E    L_3       
     e(  5 -  5) =      9.49542  eV     1   --> A_1  L_1       
     e(  6 -  7) =     23.44073  eV     2   --> E    L_3       
     e(  8 -  8) =     25.74766  eV     1   --> A_1  L_1       
     e(  9 - 10) =     28.01884  eV     2   --> E    L_3       

 **************************************************************************

 **************************************************************************

                    xk=(   0.37708,   0.37708,   0.37708  )

     Band symmetry, C_3v (3m)   point group:

     e(  1 -  1) =    -45.55333  eV     1   --> A_1  L_1       
     e(  2 -  2) =      2.73186  eV     1   --> A_1  L_1       
     e(  3 -  4) =      5.28895  eV     2   --> E    L_3       
     e(  5 -  5) =      9.50418  eV     1   --> A_1  L_1       
     e(  6 -  7) =     23.39395  eV     2   --> E    L_3       
     e(  8 -  8) =     25.77823  eV     1   --> A_1  L_1       
     e(  9 - 10) =     27.95398  eV     2   --> E    L_3       

 **************************************************************************

 **************************************************************************

                    xk=(   0.37528,   0.37528,   0.37528  )

     Band symmetry, C_3v (3m)   point group:

     e(  1 -  1) =    -45.55336  eV     1   --> A_1  L_1       
     e(  2 -  2) =      2.68224  eV     1   --> A_1  L_1       
     e(  3 -  4) =      5.32511  eV     2   --> E    L_3       
     e(  5 -  5) =      9.51318  eV     1   --> A_1  L_1       
     e(  6 -  7) =     23.34691  eV     2   --> E    L_3       
     e(  8 -  8) =     25.80836  eV     1   --> A_1  L_1       
     e(  9 - 10) =     27.88915  eV     2   --> E    L_3       

 **************************************************************************

 **************************************************************************

                    xk=(   0.37347,   0.37347,   0.37347  )

     Band symmetry, C_3v (3m)   point group:

     e(  1 -  1) =    -45.55338  eV     1   --> A_1  L_1       
     e(  2 -  2) =      2.63278  eV     1   --> A_1  L_1       
     e(  3 -  4) =      5.36159  eV     2   --> E    L_3       
     e(  5 -  5) =      9.52242  eV     1   --> A_1  L_1       
     e(  6 -  7) =     23.29961  eV     2   --> E    L_3       
     e(  8 -  8) =     25.83807  eV     1   --> A_1  L_1       
     e(  9 - 10) =     27.82438  eV     2   --> E    L_3       

 **************************************************************************

 **************************************************************************

                    xk=(   0.37167,   0.37167,   0.37167  )

     Band symmetry, C_3v (3m)   point group:

     e(  1 -  1) =    -45.55341  eV     1   --> A_1  L_1       
     e(  2 -  2) =      2.58349  eV     1   --> A_1  L_1       
     e(  3 -  4) =      5.39839  eV     2   --> E    L_3       
     e(  5 -  5) =      9.53189  eV     1   --> A_1  L_1       
     e(  6 -  7) =     23.25208  eV     2   --> E    L_3       
     e(  8 -  8) =     25.86736  eV     1   --> A_1  L_1       
     e(  9 - 10) =     27.75968  eV     2   --> E    L_3       

 **************************************************************************

 **************************************************************************

                    xk=(   0.36987,   0.36987,   0.36987  )

     Band symmetry, C_3v (3m)   point group:

     e(  1 -  1) =    -45.55344  eV     1   --> A_1  L_1       
     e(  2 -  2) =      2.53437  eV     1   --> A_1  L_1       
     e(  3 -  4) =      5.43551  eV     2   --> E    L_3       
     e(  5 -  5) =      9.54159  eV     1   --> A_1  L_1       
     e(  6 -  7) =     23.20433  eV     2   --> E    L_3       
     e(  8 -  8) =     25.89625  eV     1   --> A_1  L_1       
     e(  9 - 10) =     27.69509  eV     2   --> E    L_3       

 **************************************************************************

 **************************************************************************

                    xk=(   0.36806,   0.36806,   0.36806  )

     Band symmetry, C_3v (3m)   point group:

     e(  1 -  1) =    -45.55347  eV     1   --> A_1  L_1       
     e(  2 -  2) =      2.48542  eV     1   --> A_1  L_1       
     e(  3 -  4) =      5.47294  eV     2   --> E    L_3       
     e(  5 -  5) =      9.55153  eV     1   --> A_1  L_1       
     e(  6 -  7) =     23.15639  eV     2   --> E    L_3       
     e(  8 -  8) =     25.92476  eV     1   --> A_1  L_1       
     e(  9 - 10) =     27.63063  eV     2   --> E    L_3       

 **************************************************************************

 **************************************************************************

                    xk=(   0.36626,   0.36626,   0.36626  )

     Band symmetry, C_3v (3m)   point group:

     e(  1 -  1) =    -45.55350  eV     1   --> A_1  L_1       
     e(  2 -  2) =      2.43665  eV     1   --> A_1  L_1       
     e(  3 -  4) =      5.51070  eV     2   --> E    L_3       
     e(  5 -  5) =      9.56171  eV     1   --> A_1  L_1       
     e(  6 -  7) =     23.10828  eV     2   --> E    L_3       
     e(  8 -  8) =     25.95290  eV     1   --> A_1  L_1       
     e(  9 - 10) =     27.56630  eV     2   --> E    L_3       

 **************************************************************************

 **************************************************************************

                    xk=(   0.36445,   0.36445,   0.36445  )

     Band symmetry, C_3v (3m)   point group:

     e(  1 -  1) =    -45.55353  eV     1   --> A_1  L_1       
     e(  2 -  2) =      2.38806  eV     1   --> A_1  L_1       
     e(  3 -  4) =      5.54876  eV     2   --> E    L_3       
     e(  5 -  5) =      9.57211  eV     1   --> A_1  L_1       
     e(  6 -  7) =     23.06000  eV     2   --> E    L_3       
     e(  8 -  8) =     25.98068  eV     1   --> A_1  L_1       
     e(  9 - 10) =     27.50213  eV     2   --> E    L_3       

 **************************************************************************

 **************************************************************************

                    xk=(   0.36265,   0.36265,   0.36265  )

     Band symmetry, C_3v (3m)   point group:

     e(  1 -  1) =    -45.55356  eV     1   --> A_1  L_1       
     e(  2 -  2) =      2.33965  eV     1   --> A_1  L_1       
     e(  3 -  4) =      5.58715  eV     2   --> E    L_3       
     e(  5 -  5) =      9.58275  eV     1   --> A_1  L_1       
     e(  6 -  7) =     23.01159  eV     2   --> E    L_3       
     e(  8 -  8) =     26.00812  eV     1   --> A_1  L_1       
     e(  9 - 10) =     27.43812  eV     2   --> E    L_3       

 **************************************************************************

 **************************************************************************

                    xk=(   0.36084,   0.36084,   0.36084  )

     Band symmetry, C_3v (3m)   point group:

     e(  1 -  1) =    -45.55360  eV     1   --> A_1  L_1       
     e(  2 -  2) =      2.29142  eV     1   --> A_1  L_1       
     e(  3 -  4) =      5.62585  eV     2   --> E    L_3       
     e(  5 -  5) =      9.59362  eV     1   --> A_1  L_1       
     e(  6 -  7) =     22.96305  eV     2   --> E    L_3       
     e(  8 -  8) =     26.03524  eV     1   --> A_1  L_1       
     e(  9 - 10) =     27.37431  eV     2   --> E    L_3       

 **************************************************************************

 **************************************************************************

                    xk=(   0.35904,   0.35904,   0.35904  )

     Band symmetry, C_3v (3m)   point group:

     e(  1 -  1) =    -45.55363  eV     1   --> A_1  L_1       
     e(  2 -  2) =      2.24338  eV     1   --> A_1  L_1       
     e(  3 -  4) =      5.66487  eV     2   --> E    L_3       
     e(  5 -  5) =      9.60472  eV     1   --> A_1  L_1       
     e(  6 -  7) =     22.91439  eV     2   --> E    L_3       
     e(  8 -  8) =     26.06203  eV     1   --> A_1  L_1       
     e(  9 - 10) =     27.31068  eV     2   --> E    L_3       

 **************************************************************************

 **************************************************************************

                    xk=(   0.35724,   0.35724,   0.35724  )

     Band symmetry, C_3v (3m)   point group:

     e(  1 -  1) =    -45.55367  eV     1   --> A_1  L_1       
     e(  2 -  2) =      2.19553  eV     1   --> A_1  L_1       
     e(  3 -  4) =      5.70420  eV     2   --> E    L_3       
     e(  5 -  5) =      9.61605  eV     1   --> A_1  L_1       
     e(  6 -  7) =     22.86565  eV     2   --> E    L_3       
     e(  8 -  8) =     26.08853  eV     1   --> A_1  L_1       
     e(  9 - 10) =     27.24726  eV     2   --> E    L_3       

 **************************************************************************

 **************************************************************************

                    xk=(   0.35543,   0.35543,   0.35543  )

     Band symmetry, C_3v (3m)   point group:

     e(  1 -  1) =    -45.55371  eV     1   --> A_1  L_1       
     e(  2 -  2) =      2.14787  eV     1   --> A_1  L_1       
     e(  3 -  4) =      5.74385  eV     2   --> E    L_3       
     e(  5 -  5) =      9.62761  eV     1   --> A_1  L_1       
     e(  6 -  7) =     22.81682  eV     2   --> E    L_3       
     e(  8 -  8) =     26.11474  eV     1   --> A_1  L_1       
     e(  9 - 10) =     27.18405  eV     2   --> E    L_3       

 **************************************************************************

 **************************************************************************

                    xk=(   0.35363,   0.35363,   0.35363  )

     Band symmetry, C_3v (3m)   point group:

     e(  1 -  1) =    -45.55375  eV     1   --> A_1  L_1       
     e(  2 -  2) =      2.10040  eV     1   --> A_1  L_1       
     e(  3 -  4) =      5.78381  eV     2   --> E    L_3       
     e(  5 -  5) =      9.63939  eV     1   --> A_1  L_1       
     e(  6 -  7) =     22.76793  eV     2   --> E    L_3       
     e(  8 -  8) =     26.14067  eV     1   --> A_1  L_1       
     e(  9 - 10) =     27.12106  eV     2   --> E    L_3       

 **************************************************************************

 **************************************************************************

                    xk=(   0.35182,   0.35182,   0.35182  )

     Band symmetry, C_3v (3m)   point group:

     e(  1 -  1) =    -45.55379  eV     1   --> A_1  L_1       
     e(  2 -  2) =      2.05313  eV     1   --> A_1  L_1       
     e(  3 -  4) =      5.82409  eV     2   --> E    L_3       
     e(  5 -  5) =      9.65141  eV     1   --> A_1  L_1       
     e(  6 -  7) =     22.71899  eV     2   --> E    L_3       
     e(  8 -  8) =     26.16635  eV     1   --> A_1  L_1       
     e(  9 - 10) =     27.05830  eV     2   --> E    L_3       

 **************************************************************************

 **************************************************************************

                    xk=(   0.35002,   0.35002,   0.35002  )

     Band symmetry, C_3v (3m)   point group:

     e(  1 -  1) =    -45.55383  eV     1   --> A_1  L_1       
     e(  2 -  2) =      2.00605  eV     1   --> A_1  L_1       
     e(  3 -  4) =      5.86469  eV     2   --> E    L_3       
     e(  5 -  5) =      9.66365  eV     1   --> A_1  L_1       
     e(  6 -  7) =     22.67001  eV     2   --> E    L_3       
     e(  8 -  8) =     26.19177  eV     1   --> A_1  L_1       
     e(  9 - 10) =     26.99578  eV     2   --> E    L_3       

 **************************************************************************

 **************************************************************************

                    xk=(   0.34821,   0.34821,   0.34821  )

     Band symmetry, C_3v (3m)   point group:

     e(  1 -  1) =    -45.55388  eV     1   --> A_1  L_1       
     e(  2 -  2) =      1.95917  eV     1   --> A_1  L_1       
     e(  3 -  4) =      5.90560  eV     2   --> E    L_3       
     e(  5 -  5) =      9.67614  eV     1   --> A_1  L_1       
     e(  6 -  7) =     22.62102  eV     2   --> E    L_3       
     e(  8 -  8) =     26.21697  eV     1   --> A_1  L_1       
     e(  9 - 10) =     26.93350  eV     2   --> E    L_3       

 **************************************************************************

 **************************************************************************

                    xk=(   0.34641,   0.34641,   0.34641  )

     Band symmetry, C_3v (3m)   point group:

     e(  1 -  1) =    -45.55392  eV     1   --> A_1  L_1       
     e(  2 -  2) =      1.91250  eV     1   --> A_1  L_1       
     e(  3 -  4) =      5.94682  eV     2   --> E    L_3       
     e(  5 -  5) =      9.68884  eV     1   --> A_1  L_1       
     e(  6 -  7) =     22.57199  eV     2   --> E    L_3       
     e(  8 -  8) =     26.24193  eV     1   --> A_1  L_1       
     e(  9 - 10) =     26.87147  eV     2   --> E    L_3       

 **************************************************************************

 **************************************************************************

                    xk=(   0.34461,   0.34461,   0.34461  )

     Band symmetry, C_3v (3m)   point group:

     e(  1 -  1) =    -45.55397  eV     1   --> A_1  L_1       
     e(  2 -  2) =      1.86602  eV     1   --> A_1  L_1       
     e(  3 -  4) =      5.98836  eV     2   --> E    L_3       
     e(  5 -  5) =      9.70177  eV     1   --> A_1  L_1       
     e(  6 -  7) =     22.52296  eV     2   --> E    L_3       
     e(  8 -  8) =     26.26667  eV     1   --> A_1  L_1       
     e(  9 - 10) =     26.80969  eV     2   --> E    L_3       

 **************************************************************************

 **************************************************************************

                    xk=(   0.34280,   0.34280,   0.34280  )

     Band symmetry, C_3v (3m)   point group:

     e(  1 -  1) =    -45.55402  eV     1   --> A_1  L_1       
     e(  2 -  2) =      1.81976  eV     1   --> A_1  L_1       
     e(  3 -  4) =      6.03021  eV     2   --> E    L_3       
     e(  5 -  5) =      9.71493  eV     1   --> A_1  L_1       
     e(  6 -  7) =     22.47394  eV     2   --> E    L_3       
     e(  8 -  8) =     26.29122  eV     1   --> A_1  L_1       
     e(  9 - 10) =     26.74817  eV     2   --> E    L_3       

 **************************************************************************

 **************************************************************************

                    xk=(   0.34100,   0.34100,   0.34100  )

     Band symmetry, C_3v (3m)   point group:

     e(  1 -  1) =    -45.55407  eV     1   --> A_1  L_1       
     e(  2 -  2) =      1.77370  eV     1   --> A_1  L_1       
     e(  3 -  4) =      6.07238  eV     2   --> E    L_3       
     e(  5 -  5) =      9.72832  eV     1   --> A_1  L_1       
     e(  6 -  7) =     22.42494  eV     2   --> E    L_3       
     e(  8 -  8) =     26.31557  eV     1   --> A_1  L_1       
     e(  9 - 10) =     26.68691  eV     2   --> E    L_3       

 **************************************************************************

 **************************************************************************

                    xk=(   0.33919,   0.33919,   0.33919  )

     Band symmetry, C_3v (3m)   point group:

     e(  1 -  1) =    -45.55412  eV     1   --> A_1  L_1       
     e(  2 -  2) =      1.72784  eV     1   --> A_1  L_1       
     e(  3 -  4) =      6.11485  eV     2   --> E    L_3       
     e(  5 -  5) =      9.74193  eV     1   --> A_1  L_1       
     e(  6 -  7) =     22.37596  eV     2   --> E    L_3       
     e(  8 -  8) =     26.33973  eV     1   --> A_1  L_1       
     e(  9 - 10) =     26.62592  eV     2   --> E    L_3       

 **************************************************************************

 **************************************************************************

                    xk=(   0.33739,   0.33739,   0.33739  )

     Band symmetry, C_3v (3m)   point group:

     e(  1 -  1) =    -45.55417  eV     1   --> A_1  L_1       
     e(  2 -  2) =      1.68220  eV     1   --> A_1  L_1       
     e(  3 -  4) =      6.15765  eV     2   --> E    L_3       
     e(  5 -  5) =      9.75578  eV     1   --> A_1  L_1       
     e(  6 -  7) =     22.32702  eV     2   --> E    L_3       
     e(  8 -  8) =     26.36373  eV     1   --> A_1  L_1       
     e(  9 - 10) =     26.56520  eV     2   --> E    L_3       

 **************************************************************************

 **************************************************************************

                    xk=(   0.33558,   0.33558,   0.33558  )

     Band symmetry, C_3v (3m)   point group:

     e(  1 -  1) =    -45.55423  eV     1   --> A_1  L_1       
     e(  2 -  2) =      1.63676  eV     1   --> A_1  L_1       
     e(  3 -  4) =      6.20075  eV     2   --> E    L_3       
     e(  5 -  5) =      9.76985  eV     1   --> A_1  L_1       
     e(  6 -  7) =     22.27814  eV     2   --> E    L_3       
     e(  8 -  8) =     26.38756  eV     1   --> A_1  L_1       
     e(  9 - 10) =     26.50475  eV     2   --> E    L_3       

 **************************************************************************

 **************************************************************************

                    xk=(   0.33378,   0.33378,   0.33378  )

     Band symmetry, C_3v (3m)   point group:

     e(  1 -  1) =    -45.55428  eV     1   --> A_1  L_1       
     e(  2 -  2) =      1.59154  eV     1   --> A_1  L_1       
     e(  3 -  4) =      6.24417  eV     2   --> E    L_3       
     e(  5 -  5) =      9.78416  eV     1   --> A_1  L_1       
     e(  6 -  7) =     22.22931  eV     2   --> E    L_3       
     e(  8 -  8) =     26.41123  eV     1   --> A_1  L_1       
     e(  9 - 10) =     26.44459  eV     2   --> E    L_3       

 **************************************************************************

 **************************************************************************

                    xk=(   0.33198,   0.33198,   0.33198  )

     Band symmetry, C_3v (3m)   point group:

     e(  1 -  1) =    -45.55434  eV     1   --> A_1  L_1       
     e(  2 -  2) =      1.54654  eV     1   --> A_1  L_1       
     e(  3 -  4) =      6.28789  eV     2   --> E    L_3       
     e(  5 -  5) =      9.79869  eV     1   --> A_1  L_1       
     e(  6 -  7) =     22.18055  eV     2   --> E    L_3       
     e(  8 -  9) =     26.38470  eV     2   --> E    L_3       
     e( 10 - 10) =     26.43476  eV     1   --> A_1  L_1       

 **************************************************************************

 **************************************************************************

                    xk=(   0.33017,   0.33017,   0.33017  )

     Band symmetry, C_3v (3m)   point group:

     e(  1 -  1) =    -45.55440  eV     1   --> A_1  L_1       
     e(  2 -  2) =      1.50175  eV     1   --> A_1  L_1       
     e(  3 -  4) =      6.33193  eV     2   --> E    L_3       
     e(  5 -  5) =      9.81345  eV     1   --> A_1  L_1       
     e(  6 -  7) =     22.13187  eV     2   --> E    L_3       
     e(  8 -  9) =     26.32510  eV     2   --> E    L_3       
     e( 10 - 10) =     26.45815  eV     1   --> A_1  L_1       

 **************************************************************************

 **************************************************************************

                    xk=(   0.32837,   0.32837,   0.32837  )

     Band symmetry, C_3v (3m)   point group:

     e(  1 -  1) =    -45.55446  eV     1   --> A_1  L_1       
     e(  2 -  2) =      1.45717  eV     1   --> A_1  L_1       
     e(  3 -  4) =      6.37629  eV     2   --> E    L_3       
     e(  5 -  5) =      9.82845  eV     1   --> A_1  L_1       
     e(  6 -  7) =     22.08327  eV     2   --> E    L_3       
     e(  8 -  9) =     26.26578  eV     2   --> E    L_3       
     e( 10 - 10) =     26.48141  eV     1   --> A_1  L_1       

 **************************************************************************

 **************************************************************************

                    xk=(   0.32656,   0.32656,   0.32656  )

     Band symmetry, C_3v (3m)   point group:

     e(  1 -  1) =    -45.55452  eV     1   --> A_1  L_1       
     e(  2 -  2) =      1.41282  eV     1   --> A_1  L_1       
     e(  3 -  4) =      6.42095  eV     2   --> E    L_3       
     e(  5 -  5) =      9.84367  eV     1   --> A_1  L_1       
     e(  6 -  7) =     22.03476  eV     2   --> E    L_3       
     e(  8 -  9) =     26.20675  eV     2   --> E    L_3       
     e( 10 - 10) =     26.50455  eV     1   --> A_1  L_1       

 **************************************************************************

 **************************************************************************

                    xk=(   0.32476,   0.32476,   0.32476  )

     Band symmetry, C_3v (3m)   point group:

     e(  1 -  1) =    -45.55458  eV     1   --> A_1  L_1       
     e(  2 -  2) =      1.36868  eV     1   --> A_1  L_1       
     e(  3 -  4) =      6.46592  eV     2   --> E    L_3       
     e(  5 -  5) =      9.85912  eV     1   --> A_1  L_1       
     e(  6 -  7) =     21.98635  eV     2   --> E    L_3       
     e(  8 -  9) =     26.14802  eV     2   --> E    L_3       
     e( 10 - 10) =     26.52757  eV     1   --> A_1  L_1       

 **************************************************************************

 **************************************************************************

                    xk=(   0.32296,   0.32296,   0.32296  )

     Band symmetry, C_3v (3m)   point group:

     e(  1 -  1) =    -45.55465  eV     1   --> A_1  L_1       
     e(  2 -  2) =      1.32476  eV     1   --> A_1  L_1       
     e(  3 -  4) =      6.51120  eV     2   --> E    L_3       
     e(  5 -  5) =      9.87481  eV     1   --> A_1  L_1       
     e(  6 -  7) =     21.93805  eV     2   --> E    L_3       
     e(  8 -  9) =     26.08957  eV     2   --> E    L_3       
     e( 10 - 10) =     26.55047  eV     1   --> A_1  L_1       

 **************************************************************************

 **************************************************************************

                    xk=(   0.32115,   0.32115,   0.32115  )

     Band symmetry, C_3v (3m)   point group:

     e(  1 -  1) =    -45.55471  eV     1   --> A_1  L_1       
     e(  2 -  2) =      1.28107  eV     1   --> A_1  L_1       
     e(  3 -  4) =      6.55680  eV     2   --> E    L_3       
     e(  5 -  5) =      9.89073  eV     1   --> A_1  L_1       
     e(  6 -  7) =     21.88987  eV     2   --> E    L_3       
     e(  8 -  9) =     26.03142  eV     2   --> E    L_3       
     e( 10 - 10) =     26.57327  eV     1   --> A_1  L_1       

 **************************************************************************

 **************************************************************************

                    xk=(   0.31935,   0.31935,   0.31935  )

     Band symmetry, C_3v (3m)   point group:

     e(  1 -  1) =    -45.55478  eV     1   --> A_1  L_1       
     e(  2 -  2) =      1.23760  eV     1   --> A_1  L_1       
     e(  3 -  4) =      6.60270  eV     2   --> E    L_3       
     e(  5 -  5) =      9.90688  eV     1   --> A_1  L_1       
     e(  6 -  7) =     21.84181  eV     2   --> E    L_3       
     e(  8 -  9) =     25.97357  eV     2   --> E    L_3       
     e( 10 - 10) =     26.59596  eV     1   --> A_1  L_1       

 **************************************************************************

 **************************************************************************

                    xk=(   0.31754,   0.31754,   0.31754  )

     Band symmetry, C_3v (3m)   point group:

     e(  1 -  1) =    -45.55485  eV     1   --> A_1  L_1       
     e(  2 -  2) =      1.19435  eV     1   --> A_1  L_1       
     e(  3 -  4) =      6.64891  eV     2   --> E    L_3       
     e(  5 -  5) =      9.92327  eV     1   --> A_1  L_1       
     e(  6 -  7) =     21.79387  eV     2   --> E    L_3       
     e(  8 -  9) =     25.91601  eV     2   --> E    L_3       
     e( 10 - 10) =     26.61856  eV     1   --> A_1  L_1       

 **************************************************************************

 **************************************************************************

                    xk=(   0.31574,   0.31574,   0.31574  )

     Band symmetry, C_3v (3m)   point group:

     e(  1 -  1) =    -45.55492  eV     1   --> A_1  L_1       
     e(  2 -  2) =      1.15132  eV     1   --> A_1  L_1       
     e(  3 -  4) =      6.69543  eV     2   --> E    L_3       
     e(  5 -  5) =      9.93988  eV     1   --> A_1  L_1       
     e(  6 -  7) =     21.74608  eV     2   --> E    L_3       
     e(  8 -  9) =     25.85876  eV     2   --> E    L_3       
     e( 10 - 10) =     26.64106  eV     1   --> A_1  L_1       

 **************************************************************************

 **************************************************************************

                    xk=(   0.31393,   0.31393,   0.31393  )

     Band symmetry, C_3v (3m)   point group:

     e(  1 -  1) =    -45.55499  eV     1   --> A_1  L_1       
     e(  2 -  2) =      1.10852  eV     1   --> A_1  L_1       
     e(  3 -  4) =      6.74226  eV     2   --> E    L_3       
     e(  5 -  5) =      9.95673  eV     1   --> A_1  L_1       
     e(  6 -  7) =     21.69842  eV     2   --> E    L_3       
     e(  8 -  9) =     25.80180  eV     2   --> E    L_3       
     e( 10 - 10) =     26.64305  eV     1   --> A_2  L_2       

 **************************************************************************

 **************************************************************************

                    xk=(   0.31213,   0.31213,   0.31213  )

     Band symmetry, C_3v (3m)   point group:

     e(  1 -  1) =    -45.55507  eV     1   --> A_1  L_1       
     e(  2 -  2) =      1.06595  eV     1   --> A_1  L_1       
     e(  3 -  4) =      6.78939  eV     2   --> E    L_3       
     e(  5 -  5) =      9.97382  eV     1   --> A_1  L_1       
     e(  6 -  7) =     21.65091  eV     2   --> E    L_3       
     e(  8 -  9) =     25.74515  eV     2   --> E    L_3       
     e( 10 - 10) =     26.58548  eV     1   --> A_2  L_2       

 **************************************************************************

 **************************************************************************

                    xk=(   0.31033,   0.31033,   0.31033  )

     Band symmetry, C_3v (3m)   point group:

     e(  1 -  1) =    -45.55514  eV     1   --> A_1  L_1       
     e(  2 -  2) =      1.02361  eV     1   --> A_1  L_1       
     e(  3 -  4) =      6.83683  eV     2   --> E    L_3       
     e(  5 -  5) =      9.99114  eV     1   --> A_1  L_1       
     e(  6 -  7) =     21.60356  eV     2   --> E    L_3       
     e(  8 -  9) =     25.68880  eV     2   --> E    L_3       
     e( 10 - 10) =     26.52824  eV     1   --> A_2  L_2       

 **************************************************************************

 **************************************************************************

                    xk=(   0.30852,   0.30852,   0.30852  )

     Band symmetry, C_3v (3m)   point group:

     e(  1 -  1) =    -45.55522  eV     1   --> A_1  L_1       
     e(  2 -  2) =      0.98149  eV     1   --> A_1  L_1       
     e(  3 -  4) =      6.88458  eV     2   --> E    L_3       
     e(  5 -  5) =     10.00870  eV     1   --> A_1  L_1       
     e(  6 -  7) =     21.55636  eV     2   --> E    L_3       
     e(  8 -  9) =     25.63276  eV     2   --> E    L_3       
     e( 10 - 10) =     26.47133  eV     1   --> A_2  L_2       

 **************************************************************************

 **************************************************************************

                    xk=(   0.30672,   0.30672,   0.30672  )

     Band symmetry, C_3v (3m)   point group:

     e(  1 -  1) =    -45.55530  eV     1   --> A_1  L_1       
     e(  2 -  2) =      0.93960  eV     1   --> A_1  L_1       
     e(  3 -  4) =      6.93264  eV     2   --> E    L_3       
     e(  5 -  5) =     10.02650  eV     1   --> A_1  L_1       
     e(  6 -  7) =     21.50934  eV     2   --> E    L_3       
     e(  8 -  9) =     25.57703  eV     2   --> E    L_3       
     e( 10 - 10) =     26.41476  eV     1   --> A_2  L_2       

 **************************************************************************

 **************************************************************************

                    xk=(   0.30491,   0.30491,   0.30491  )

     Band symmetry, C_3v (3m)   point group:

     e(  1 -  1) =    -45.55538  eV     1   --> A_1  L_1       
     e(  2 -  2) =      0.89794  eV     1   --> A_1  L_1       
     e(  3 -  4) =      6.98100  eV     2   --> E    L_3       
     e(  5 -  5) =     10.04453  eV     1   --> A_1  L_1       
     e(  6 -  7) =     21.46248  eV     2   --> E    L_3       
     e(  8 -  9) =     25.52160  eV     2   --> E    L_3       
     e( 10 - 10) =     26.35851  eV     1   --> A_2  L_2       

 **************************************************************************

 **************************************************************************

                    xk=(   0.30311,   0.30311,   0.30311  )

     Band symmetry, C_3v (3m)   point group:

     e(  1 -  1) =    -45.55546  eV     1   --> A_1  L_1       
     e(  2 -  2) =      0.85651  eV     1   --> A_1  L_1       
     e(  3 -  4) =      7.02966  eV     2   --> E    L_3       
     e(  5 -  5) =     10.06280  eV     1   --> A_1  L_1       
     e(  6 -  7) =     21.41580  eV     2   --> E    L_3       
     e(  8 -  9) =     25.46648  eV     2   --> E    L_3       
     e( 10 - 10) =     26.30260  eV     1   --> A_2  L_2       

 **************************************************************************

 **************************************************************************

                    xk=(   0.30130,   0.30130,   0.30130  )

     Band symmetry, C_3v (3m)   point group:

     e(  1 -  1) =    -45.55555  eV     1   --> A_1  L_1       
     e(  2 -  2) =      0.81532  eV     1   --> A_1  L_1       
     e(  3 -  4) =      7.07864  eV     2   --> E    L_3       
     e(  5 -  5) =     10.08131  eV     1   --> A_1  L_1       
     e(  6 -  7) =     21.36929  eV     2   --> E    L_3       
     e(  8 -  9) =     25.41167  eV     2   --> E    L_3       
     e( 10 - 10) =     26.24702  eV     1   --> A_2  L_2       

 **************************************************************************

 **************************************************************************

                    xk=(   0.29950,   0.29950,   0.29950  )

     Band symmetry, C_3v (3m)   point group:

     e(  1 -  1) =    -45.55563  eV     1   --> A_1  L_1       
     e(  2 -  2) =      0.77436  eV     1   --> A_1  L_1       
     e(  3 -  4) =      7.12791  eV     2   --> E    L_3       
     e(  5 -  5) =     10.10007  eV     1   --> A_1  L_1       
     e(  6 -  7) =     21.32299  eV     2   --> E    L_3       
     e(  8 -  9) =     25.35717  eV     2   --> E    L_3       
     e( 10 - 10) =     26.19177  eV     1   --> A_2  L_2       

 **************************************************************************

 **************************************************************************

                    xk=(   0.29770,   0.29770,   0.29770  )

     Band symmetry, C_3v (3m)   point group:

     e(  1 -  1) =    -45.55572  eV     1   --> A_1  L_1       
     e(  2 -  2) =      0.73363  eV     1   --> A_1  L_1       
     e(  3 -  4) =      7.17749  eV     2   --> E    L_3       
     e(  5 -  5) =     10.11905  eV     1   --> A_1  L_1       
     e(  6 -  7) =     21.27686  eV     2   --> E    L_3       
     e(  8 -  9) =     25.30298  eV     2   --> E    L_3       
     e( 10 - 10) =     26.13686  eV     1   --> A_2  L_2       

 **************************************************************************

 **************************************************************************

                    xk=(   0.29589,   0.29589,   0.29589  )

     Band symmetry, C_3v (3m)   point group:

     e(  1 -  1) =    -45.55580  eV     1   --> A_1  L_1       
     e(  2 -  2) =      0.69313  eV     1   --> A_1  L_1       
     e(  3 -  4) =      7.22737  eV     2   --> E    L_3       
     e(  5 -  5) =     10.13828  eV     1   --> A_1  L_1       
     e(  6 -  7) =     21.23093  eV     2   --> E    L_3       
     e(  8 -  9) =     25.24911  eV     2   --> E    L_3       
     e( 10 - 10) =     26.08227  eV     1   --> A_2  L_2       

 **************************************************************************

 **************************************************************************

                    xk=(   0.29409,   0.29409,   0.29409  )

     Band symmetry, C_3v (3m)   point group:

     e(  1 -  1) =    -45.55589  eV     1   --> A_1  L_1       
     e(  2 -  2) =      0.65287  eV     1   --> A_1  L_1       
     e(  3 -  4) =      7.27755  eV     2   --> E    L_3       
     e(  5 -  5) =     10.15775  eV     1   --> A_1  L_1       
     e(  6 -  7) =     21.18521  eV     2   --> E    L_3       
     e(  8 -  9) =     25.19554  eV     2   --> E    L_3       
     e( 10 - 10) =     26.02802  eV     1   --> A_2  L_2       

 **************************************************************************

 **************************************************************************

                    xk=(   0.29228,   0.29228,   0.29228  )

     Band symmetry, C_3v (3m)   point group:

     e(  1 -  1) =    -45.55598  eV     1   --> A_1  L_1       
     e(  2 -  2) =      0.61284  eV     1   --> A_1  L_1       
     e(  3 -  4) =      7.32804  eV     2   --> E    L_3       
     e(  5 -  5) =     10.17747  eV     1   --> A_1  L_1       
     e(  6 -  7) =     21.13968  eV     2   --> E    L_3       
     e(  8 -  9) =     25.14230  eV     2   --> E    L_3       
     e( 10 - 10) =     25.97410  eV     1   --> A_2  L_2       

 **************************************************************************

 **************************************************************************

                    xk=(   0.29048,   0.29048,   0.29048  )

     Band symmetry, C_3v (3m)   point group:

     e(  1 -  1) =    -45.55608  eV     1   --> A_1  L_1       
     e(  2 -  2) =      0.57305  eV     1   --> A_1  L_1       
     e(  3 -  4) =      7.37883  eV     2   --> E    L_3       
     e(  5 -  5) =     10.19742  eV     1   --> A_1  L_1       
     e(  6 -  7) =     21.09437  eV     2   --> E    L_3       
     e(  8 -  9) =     25.08936  eV     2   --> E    L_3       
     e( 10 - 10) =     25.92051  eV     1   --> A_2  L_2       

 **************************************************************************

 **************************************************************************

                    xk=(   0.28868,   0.28868,   0.28868  )

     Band symmetry, C_3v (3m)   point group:

     e(  1 -  1) =    -45.55617  eV     1   --> A_1  L_1       
     e(  2 -  2) =      0.53349  eV     1   --> A_1  L_1       
     e(  3 -  4) =      7.42991  eV     2   --> E    L_3       
     e(  5 -  5) =     10.21762  eV     1   --> A_1  L_1       
     e(  6 -  7) =     21.04927  eV     2   --> E    L_3       
     e(  8 -  9) =     25.03674  eV     2   --> E    L_3       
     e( 10 - 10) =     25.86725  eV     1   --> A_2  L_2       

 **************************************************************************

 **************************************************************************

                    xk=(   0.28687,   0.28687,   0.28687  )

     Band symmetry, C_3v (3m)   point group:

     e(  1 -  1) =    -45.55627  eV     1   --> A_1  L_1       
     e(  2 -  2) =      0.49417  eV     1   --> A_1  L_1       
     e(  3 -  4) =      7.48130  eV     2   --> E    L_3       
     e(  5 -  5) =     10.23807  eV     1   --> A_1  L_1       
     e(  6 -  7) =     21.00439  eV     2   --> E    L_3       
     e(  8 -  9) =     24.98444  eV     2   --> E    L_3       
     e( 10 - 10) =     25.81432  eV     1   --> A_2  L_2       

 **************************************************************************

 **************************************************************************

                    xk=(   0.28507,   0.28507,   0.28507  )

     Band symmetry, C_3v (3m)   point group:

     e(  1 -  1) =    -45.55636  eV     1   --> A_1  L_1       
     e(  2 -  2) =      0.45509  eV     1   --> A_1  L_1       
     e(  3 -  4) =      7.53299  eV     2   --> E    L_3       
     e(  5 -  5) =     10.25876  eV     1   --> A_1  L_1       
     e(  6 -  7) =     20.95973  eV     2   --> E    L_3       
     e(  8 -  9) =     24.93246  eV     2   --> E    L_3       
     e( 10 - 10) =     25.76173  eV     1   --> A_2  L_2       

 **************************************************************************

 **************************************************************************

                    xk=(   0.28326,   0.28326,   0.28326  )

     Band symmetry, C_3v (3m)   point group:

     e(  1 -  1) =    -45.55646  eV     1   --> A_1  L_1       
     e(  2 -  2) =      0.41624  eV     1   --> A_1  L_1       
     e(  3 -  4) =      7.58497  eV     2   --> E    L_3       
     e(  5 -  5) =     10.27969  eV     1   --> A_1  L_1       
     e(  6 -  7) =     20.91529  eV     2   --> E    L_3       
     e(  8 -  9) =     24.88079  eV     2   --> E    L_3       
     e( 10 - 10) =     25.70947  eV     1   --> A_2  L_2       

 **************************************************************************

 **************************************************************************

                    xk=(   0.28146,   0.28146,   0.28146  )

     Band symmetry, C_3v (3m)   point group:

     e(  1 -  1) =    -45.55656  eV     1   --> A_1  L_1       
     e(  2 -  2) =      0.37764  eV     1   --> A_1  L_1       
     e(  3 -  4) =      7.63725  eV     2   --> E    L_3       
     e(  5 -  5) =     10.30088  eV     1   --> A_1  L_1       
     e(  6 -  7) =     20.87108  eV     2   --> E    L_3       
     e(  8 -  9) =     24.82943  eV     2   --> E    L_3       
     e( 10 - 10) =     25.65754  eV     1   --> A_2  L_2       

 **************************************************************************

 **************************************************************************

                    xk=(   0.27965,   0.27965,   0.27965  )

     Band symmetry, C_3v (3m)   point group:

     e(  1 -  1) =    -45.55666  eV     1   --> A_1  L_1       
     e(  2 -  2) =      0.33927  eV     1   --> A_1  L_1       
     e(  3 -  4) =      7.68983  eV     2   --> E    L_3       
     e(  5 -  5) =     10.32231  eV     1   --> A_1  L_1       
     e(  6 -  7) =     20.82711  eV     2   --> E    L_3       
     e(  8 -  9) =     24.77840  eV     2   --> E    L_3       
     e( 10 - 10) =     25.60594  eV     1   --> A_2  L_2       

 **************************************************************************

 **************************************************************************

                    xk=(   0.27785,   0.27785,   0.27785  )

     Band symmetry, C_3v (3m)   point group:

     e(  1 -  1) =    -45.55677  eV     1   --> A_1  L_1       
     e(  2 -  2) =      0.30114  eV     1   --> A_1  L_1       
     e(  3 -  4) =      7.74271  eV     2   --> E    L_3       
     e(  5 -  5) =     10.34398  eV     1   --> A_1  L_1       
     e(  6 -  7) =     20.78337  eV     2   --> E    L_3       
     e(  8 -  9) =     24.72769  eV     2   --> E    L_3       
     e( 10 - 10) =     25.55467  eV     1   --> A_2  L_2       

 **************************************************************************

 **************************************************************************

                    xk=(   0.27605,   0.27605,   0.27605  )

     Band symmetry, C_3v (3m)   point group:

     e(  1 -  1) =    -45.55687  eV     1   --> A_1  L_1       
     e(  2 -  2) =      0.26325  eV     1   --> A_1  L_1       
     e(  3 -  4) =      7.79588  eV     2   --> E    L_3       
     e(  5 -  5) =     10.36591  eV     1   --> A_1  L_1       
     e(  6 -  7) =     20.73987  eV     2   --> E    L_3       
     e(  8 -  9) =     24.67729  eV     2   --> E    L_3       
     e( 10 - 10) =     25.50373  eV     1   --> A_2  L_2       

 **************************************************************************

 **************************************************************************

                    xk=(   0.27424,   0.27424,   0.27424  )

     Band symmetry, C_3v (3m)   point group:

     e(  1 -  1) =    -45.55698  eV     1   --> A_1  L_1       
     e(  2 -  2) =      0.22560  eV     1   --> A_1  L_1       
     e(  3 -  4) =      7.84934  eV     2   --> E    L_3       
     e(  5 -  5) =     10.38809  eV     1   --> A_1  L_1       
     e(  6 -  7) =     20.69661  eV     2   --> E    L_3       
     e(  8 -  9) =     24.62721  eV     2   --> E    L_3       
     e( 10 - 10) =     25.45313  eV     1   --> A_2  L_2       

 **************************************************************************

 **************************************************************************

                    xk=(   0.27244,   0.27244,   0.27244  )

     Band symmetry, C_3v (3m)   point group:

     e(  1 -  1) =    -45.55708  eV     1   --> A_1  L_1       
     e(  2 -  2) =      0.18819  eV     1   --> A_1  L_1       
     e(  3 -  4) =      7.90310  eV     2   --> E    L_3       
     e(  5 -  5) =     10.41052  eV     1   --> A_1  L_1       
     e(  6 -  7) =     20.65360  eV     2   --> E    L_3       
     e(  8 -  9) =     24.57746  eV     2   --> E    L_3       
     e( 10 - 10) =     25.40286  eV     1   --> A_2  L_2       

 **************************************************************************

 **************************************************************************

                    xk=(   0.27063,   0.27063,   0.27063  )

     Band symmetry, C_3v (3m)   point group:

     e(  1 -  1) =    -45.55719  eV     1   --> A_1  L_1       
     e(  2 -  2) =      0.15102  eV     1   --> A_1  L_1       
     e(  3 -  4) =      7.95716  eV     2   --> E    L_3       
     e(  5 -  5) =     10.43320  eV     1   --> A_1  L_1       
     e(  6 -  7) =     20.61085  eV     2   --> E    L_3       
     e(  8 -  9) =     24.52802  eV     2   --> E    L_3       
     e( 10 - 10) =     25.35292  eV     1   --> A_2  L_2       

 **************************************************************************

 **************************************************************************

                    xk=(   0.26883,   0.26883,   0.26883  )

     Band symmetry, C_3v (3m)   point group:

     e(  1 -  1) =    -45.55730  eV     1   --> A_1  L_1       
     e(  2 -  2) =      0.11409  eV     1   --> A_1  L_1       
     e(  3 -  4) =      8.01150  eV     2   --> E    L_3       
     e(  5 -  5) =     10.45613  eV     1   --> A_1  L_1       
     e(  6 -  7) =     20.56835  eV     2   --> E    L_3       
     e(  8 -  9) =     24.47890  eV     2   --> E    L_3       
     e( 10 - 10) =     25.30331  eV     1   --> A_2  L_2       

 **************************************************************************

 **************************************************************************

                    xk=(   0.26702,   0.26702,   0.26702  )

     Band symmetry, C_3v (3m)   point group:

     e(  1 -  1) =    -45.55741  eV     1   --> A_1  L_1       
     e(  2 -  2) =      0.07740  eV     1   --> A_1  L_1       
     e(  3 -  4) =      8.06613  eV     2   --> E    L_3       
     e(  5 -  5) =     10.47932  eV     1   --> A_1  L_1       
     e(  6 -  7) =     20.52610  eV     2   --> E    L_3       
     e(  8 -  9) =     24.43011  eV     2   --> E    L_3       
     e( 10 - 10) =     25.25403  eV     1   --> A_2  L_2       

 **************************************************************************

 **************************************************************************

                    xk=(   0.26522,   0.26522,   0.26522  )

     Band symmetry, C_3v (3m)   point group:

     e(  1 -  1) =    -45.55753  eV     1   --> A_1  L_1       
     e(  2 -  2) =      0.04096  eV     1   --> A_1  L_1       
     e(  3 -  4) =      8.12106  eV     2   --> E    L_3       
     e(  5 -  5) =     10.50276  eV     1   --> A_1  L_1       
     e(  6 -  7) =     20.48411  eV     2   --> E    L_3       
     e(  8 -  9) =     24.38163  eV     2   --> E    L_3       
     e( 10 - 10) =     25.20509  eV     1   --> A_2  L_2       

 **************************************************************************

 **************************************************************************

                    xk=(   0.26342,   0.26342,   0.26342  )

     Band symmetry, C_3v (3m)   point group:

     e(  1 -  1) =    -45.55764  eV     1   --> A_1  L_1       
     e(  2 -  2) =      0.00476  eV     1   --> A_1  L_1       
     e(  3 -  4) =      8.17627  eV     2   --> E    L_3       
     e(  5 -  5) =     10.52645  eV     1   --> A_1  L_1       
     e(  6 -  7) =     20.44238  eV     2   --> E    L_3       
     e(  8 -  9) =     24.33348  eV     2   --> E    L_3       
     e( 10 - 10) =     25.15648  eV     1   --> A_2  L_2       

 **************************************************************************

 **************************************************************************

                    xk=(   0.26161,   0.26161,   0.26161  )

     Band symmetry, C_3v (3m)   point group:

     e(  1 -  1) =    -45.55776  eV     1   --> A_1  L_1       
     e(  2 -  2) =     -0.03120  eV     1   --> A_1  L_1       
     e(  3 -  4) =      8.23177  eV     2   --> E    L_3       
     e(  5 -  5) =     10.55039  eV     1   --> A_1  L_1       
     e(  6 -  7) =     20.40092  eV     2   --> E    L_3       
     e(  8 -  9) =     24.28565  eV     2   --> E    L_3       
     e( 10 - 10) =     25.10819  eV     1   --> A_2  L_2       

 **************************************************************************

 **************************************************************************

                    xk=(   0.25981,   0.25981,   0.25981  )

     Band symmetry, C_3v (3m)   point group:

     e(  1 -  1) =    -45.55787  eV     1   --> A_1  L_1       
     e(  2 -  2) =     -0.06692  eV     1   --> A_1  L_1       
     e(  3 -  4) =      8.28756  eV     2   --> E    L_3       
     e(  5 -  5) =     10.57459  eV     1   --> A_1  L_1       
     e(  6 -  7) =     20.35973  eV     2   --> E    L_3       
     e(  8 -  9) =     24.23815  eV     2   --> E    L_3       
     e( 10 - 10) =     25.06024  eV     1   --> A_2  L_2       

 **************************************************************************

 **************************************************************************

                    xk=(   0.25800,   0.25800,   0.25800  )

     Band symmetry, C_3v (3m)   point group:

     e(  1 -  1) =    -45.55799  eV     1   --> A_1  L_1       
     e(  2 -  2) =     -0.10239  eV     1   --> A_1  L_1       
     e(  3 -  4) =      8.34363  eV     2   --> E    L_3       
     e(  5 -  5) =     10.59905  eV     1   --> A_1  L_1       
     e(  6 -  7) =     20.31881  eV     2   --> E    L_3       
     e(  8 -  9) =     24.19096  eV     2   --> E    L_3       
     e( 10 - 10) =     25.01263  eV     1   --> A_2  L_2       

 **************************************************************************

 **************************************************************************

                    xk=(   0.25620,   0.25620,   0.25620  )

     Band symmetry, C_3v (3m)   point group:

     e(  1 -  1) =    -45.55811  eV     1   --> A_1  L_1       
     e(  2 -  2) =     -0.13762  eV     1   --> A_1  L_1       
     e(  3 -  4) =      8.39999  eV     2   --> E    L_3       
     e(  5 -  5) =     10.62377  eV     1   --> A_1  L_1       
     e(  6 -  7) =     20.27817  eV     2   --> E    L_3       
     e(  8 -  9) =     24.14410  eV     2   --> E    L_3       
     e( 10 - 10) =     24.96534  eV     1   --> A_2  L_2       

 **************************************************************************

 **************************************************************************

                    xk=(   0.25439,   0.25439,   0.25439  )

     Band symmetry, C_3v (3m)   point group:

     e(  1 -  1) =    -45.55823  eV     1   --> A_1  L_1       
     e(  2 -  2) =     -0.17261  eV     1   --> A_1  L_1       
     e(  3 -  4) =      8.45663  eV     2   --> E    L_3       
     e(  5 -  5) =     10.64874  eV     1   --> A_1  L_1       
     e(  6 -  7) =     20.23781  eV     2   --> E    L_3       
     e(  8 -  9) =     24.09756  eV     2   --> E    L_3       
     e( 10 - 10) =     24.91839  eV     1   --> A_2  L_2       

 **************************************************************************

 **************************************************************************

                    xk=(   0.25259,   0.25259,   0.25259  )

     Band symmetry, C_3v (3m)   point group:

     e(  1 -  1) =    -45.55835  eV     1   --> A_1  L_1       
     e(  2 -  2) =     -0.20735  eV     1   --> A_1  L_1       
     e(  3 -  4) =      8.51356  eV     2   --> E    L_3       
     e(  5 -  5) =     10.67397  eV     1   --> A_1  L_1       
     e(  6 -  7) =     20.19772  eV     2   --> E    L_3       
     e(  8 -  9) =     24.05135  eV     2   --> E    L_3       
     e( 10 - 10) =     24.87176  eV     1   --> A_2  L_2       

 **************************************************************************

 **************************************************************************

                    xk=(   0.25079,   0.25079,   0.25079  )

     Band symmetry, C_3v (3m)   point group:

     e(  1 -  1) =    -45.55848  eV     1   --> A_1  L_1       
     e(  2 -  2) =     -0.24185  eV     1   --> A_1  L_1       
     e(  3 -  4) =      8.57076  eV     2   --> E    L_3       
     e(  5 -  5) =     10.69946  eV     1   --> A_1  L_1       
     e(  6 -  7) =     20.15792  eV     2   --> E    L_3       
     e(  8 -  9) =     24.00546  eV     2   --> E    L_3       
     e( 10 - 10) =     24.82547  eV     1   --> A_2  L_2       

 **************************************************************************

 **************************************************************************

                    xk=(   0.24898,   0.24898,   0.24898  )

     Band symmetry, C_3v (3m)   point group:

     e(  1 -  1) =    -45.55860  eV     1   --> A_1  L_1       
     e(  2 -  2) =     -0.27611  eV     1   --> A_1  L_1       
     e(  3 -  4) =      8.62825  eV     2   --> E    L_3       
     e(  5 -  5) =     10.72521  eV     1   --> A_1  L_1       
     e(  6 -  7) =     20.11841  eV     2   --> E    L_3       
     e(  8 -  9) =     23.95989  eV     2   --> E    L_3       
     e( 10 - 10) =     24.77951  eV     1   --> A_2  L_2       

 **************************************************************************

 **************************************************************************

                    xk=(   0.24718,   0.24718,   0.24718  )

     Band symmetry, C_3v (3m)   point group:

     e(  1 -  1) =    -45.55873  eV     1   --> A_1  L_1       
     e(  2 -  2) =     -0.31012  eV     1   --> A_1  L_1       
     e(  3 -  4) =      8.68601  eV     2   --> E    L_3       
     e(  5 -  5) =     10.75122  eV     1   --> A_1  L_1       
     e(  6 -  7) =     20.07919  eV     2   --> E    L_3       
     e(  8 -  9) =     23.91465  eV     2   --> E    L_3       
     e( 10 - 10) =     24.73389  eV     1   --> A_2  L_2       

 **************************************************************************

 **************************************************************************

                    xk=(   0.24537,   0.24537,   0.24537  )

     Band symmetry, C_3v (3m)   point group:

     e(  1 -  1) =    -45.55885  eV     1   --> A_1  L_1       
     e(  2 -  2) =     -0.34389  eV     1   --> A_1  L_1       
     e(  3 -  4) =      8.74405  eV     2   --> E    L_3       
     e(  5 -  5) =     10.77748  eV     1   --> A_1  L_1       
     e(  6 -  7) =     20.04026  eV     2   --> E    L_3       
     e(  8 -  9) =     23.86973  eV     2   --> E    L_3       
     e( 10 - 10) =     24.68859  eV     1   --> A_2  L_2       

 **************************************************************************

 **************************************************************************

                    xk=(   0.24357,   0.24357,   0.24357  )

     Band symmetry, C_3v (3m)   point group:

     e(  1 -  1) =    -45.55898  eV     1   --> A_1  L_1       
     e(  2 -  2) =     -0.37741  eV     1   --> A_1  L_1       
     e(  3 -  4) =      8.80237  eV     2   --> E    L_3       
     e(  5 -  5) =     10.80401  eV     1   --> A_1  L_1       
     e(  6 -  7) =     20.00162  eV     2   --> E    L_3       
     e(  8 -  9) =     23.82514  eV     2   --> E    L_3       
     e( 10 - 10) =     24.64363  eV     1   --> A_2  L_2       

 **************************************************************************

 **************************************************************************

                    xk=(   0.24177,   0.24177,   0.24177  )

     Band symmetry, C_3v (3m)   point group:

     e(  1 -  1) =    -45.55911  eV     1   --> A_1  L_1       
     e(  2 -  2) =     -0.41068  eV     1   --> A_1  L_1       
     e(  3 -  4) =      8.86096  eV     2   --> E    L_3       
     e(  5 -  5) =     10.83081  eV     1   --> A_1  L_1       
     e(  6 -  7) =     19.96329  eV     2   --> E    L_3       
     e(  8 -  9) =     23.78087  eV     2   --> E    L_3       
     e( 10 - 10) =     24.59900  eV     1   --> A_2  L_2       

 **************************************************************************

 **************************************************************************

                    xk=(   0.23996,   0.23996,   0.23996  )

     Band symmetry, C_3v (3m)   point group:

     e(  1 -  1) =    -45.55924  eV     1   --> A_1  L_1       
     e(  2 -  2) =     -0.44371  eV     1   --> A_1  L_1       
     e(  3 -  4) =      8.91982  eV     2   --> E    L_3       
     e(  5 -  5) =     10.85786  eV     1   --> A_1  L_1       
     e(  6 -  7) =     19.92525  eV     2   --> E    L_3       
     e(  8 -  9) =     23.73693  eV     2   --> E    L_3       
[...]
     e( 10 - 10) =     21.74011  eV     1   --> A_1  G_1 D_1   

 **************************************************************************

 **************************************************************************

                    xk=(   0.07939,   0.00000,   0.00000  )

     Band symmetry, C_4v (4mm)  point group:

     e(  1 -  1) =    -45.57303  eV     1   --> A_1  G_1 D_1   
     e(  2 -  2) =     -2.55128  eV     1   --> A_1  G_1 D_1   
     e(  3 -  4) =     15.11353  eV     2   --> E    G_5 D_5   
     e(  5 -  5) =     15.36008  eV     1   --> A_1  G_1 D_1   
     e(  6 -  6) =     19.22354  eV     1   --> B_1  G_3 D_2   
     e(  7 -  8) =     19.73124  eV     2   --> E    G_5 D_5   
     e(  9 -  9) =     20.44398  eV     1   --> B_2  G_4 D_2'  
     e( 10 - 10) =     21.70362  eV     1   --> A_1  G_1 D_1   

 **************************************************************************

 **************************************************************************

                    xk=(   0.07578,   0.00000,   0.00000  )

     Band symmetry, C_4v (4mm)  point group:

     e(  1 -  1) =    -45.57310  eV     1   --> A_1  G_1 D_1   
     e(  2 -  2) =     -2.55836  eV     1   --> A_1  G_1 D_1   
     e(  3 -  4) =     15.15138  eV     2   --> E    G_5 D_5   
     e(  5 -  5) =     15.37616  eV     1   --> A_1  G_1 D_1   
     e(  6 -  6) =     19.31988  eV     1   --> B_1  G_3 D_2   
     e(  7 -  8) =     19.75730  eV     2   --> E    G_5 D_5   
     e(  9 -  9) =     20.43448  eV     1   --> B_2  G_4 D_2'  
     e( 10 - 10) =     21.66852  eV     1   --> A_1  G_1 D_1   

 **************************************************************************

 **************************************************************************

                    xk=(   0.07217,   0.00000,   0.00000  )

     Band symmetry, C_4v (4mm)  point group:

     e(  1 -  1) =    -45.57317  eV     1   --> A_1  G_1 D_1   
     e(  2 -  2) =     -2.56511  eV     1   --> A_1  G_1 D_1   
     e(  3 -  4) =     15.18772  eV     2   --> E    G_5 D_5   
     e(  5 -  5) =     15.39169  eV     1   --> A_1  G_1 D_1   
     e(  6 -  6) =     19.41664  eV     1   --> B_1  G_3 D_2   
     e(  7 -  8) =     19.78468  eV     2   --> E    G_5 D_5   
     e(  9 -  9) =     20.42543  eV     1   --> B_2  G_4 D_2'  
     e( 10 - 10) =     21.63483  eV     1   --> A_1  G_1 D_1   

 **************************************************************************

 **************************************************************************

                    xk=(   0.06856,   0.00000,   0.00000  )

     Band symmetry, C_4v (4mm)  point group:

     e(  1 -  1) =    -45.57323  eV     1   --> A_1  G_1 D_1   
     e(  2 -  2) =     -2.57154  eV     1   --> A_1  G_1 D_1   
     e(  3 -  4) =     15.22253  eV     2   --> E    G_5 D_5   
     e(  5 -  5) =     15.40665  eV     1   --> A_1  G_1 D_1   
     e(  6 -  6) =     19.51381  eV     1   --> B_1  G_3 D_2   
     e(  7 -  8) =     19.81335  eV     2   --> E    G_5 D_5   
     e(  9 -  9) =     20.41681  eV     1   --> B_2  G_4 D_2'  
     e( 10 - 10) =     21.60257  eV     1   --> A_1  G_1 D_1   

 **************************************************************************

 **************************************************************************

                    xk=(   0.06495,   0.00000,   0.00000  )

     Band symmetry, C_4v (4mm)  point group:

     e(  1 -  1) =    -45.57329  eV     1   --> A_1  G_1 D_1   
     e(  2 -  2) =     -2.57763  eV     1   --> A_1  G_1 D_1   
     e(  3 -  4) =     15.25575  eV     2   --> E    G_5 D_5   
     e(  5 -  5) =     15.42102  eV     1   --> A_1  G_1 D_1   
     e(  6 -  6) =     19.61138  eV     1   --> B_1  G_3 D_2   
     e(  7 -  8) =     19.84323  eV     2   --> E    G_5 D_5   
     e(  9 -  9) =     20.40864  eV     1   --> B_2  G_4 D_2'  
     e( 10 - 10) =     21.57179  eV     1   --> A_1  G_1 D_1   

 **************************************************************************

 **************************************************************************

                    xk=(   0.06134,   0.00000,   0.00000  )

     Band symmetry, C_4v (4mm)  point group:

     e(  1 -  1) =    -45.57335  eV     1   --> A_1  G_1 D_1   
     e(  2 -  2) =     -2.58339  eV     1   --> A_1  G_1 D_1   
     e(  3 -  4) =     15.28736  eV     2   --> E    G_5 D_5   
     e(  5 -  5) =     15.43477  eV     1   --> A_1  G_1 D_1   
     e(  6 -  6) =     19.70936  eV     1   --> B_1  G_3 D_2   
     e(  7 -  8) =     19.87425  eV     2   --> E    G_5 D_5   
     e(  9 -  9) =     20.40091  eV     1   --> B_2  G_4 D_2'  
     e( 10 - 10) =     21.54249  eV     1   --> A_1  G_1 D_1   

 **************************************************************************

 **************************************************************************

                    xk=(   0.05774,   0.00000,   0.00000  )

     Band symmetry, C_4v (4mm)  point group:

     e(  1 -  1) =    -45.57340  eV     1   --> A_1  G_1 D_1   
     e(  2 -  2) =     -2.58882  eV     1   --> A_1  G_1 D_1   
     e(  3 -  4) =     15.31732  eV     2   --> E    G_5 D_5   
     e(  5 -  5) =     15.44787  eV     1   --> A_1  G_1 D_1   
     e(  6 -  6) =     19.80772  eV     1   --> B_1  G_3 D_2   
     e(  7 -  8) =     19.90631  eV     2   --> E    G_5 D_5   
     e(  9 -  9) =     20.39362  eV     1   --> B_2  G_4 D_2'  
     e( 10 - 10) =     21.51471  eV     1   --> A_1  G_1 D_1   

 **************************************************************************

 **************************************************************************

                    xk=(   0.05413,   0.00000,   0.00000  )

     Band symmetry, C_4v (4mm)  point group:

     e(  1 -  1) =    -45.57345  eV     1   --> A_1  G_1 D_1   
     e(  2 -  2) =     -2.59393  eV     1   --> A_1  G_1 D_1   
     e(  3 -  4) =     15.34561  eV     2   --> E    G_5 D_5   
     e(  5 -  5) =     15.46032  eV     1   --> A_1  G_1 D_1   
     e(  6 -  6) =     19.90646  eV     1   --> B_1  G_3 D_2   
     e(  7 -  8) =     19.93931  eV     2   --> E    G_5 D_5   
     e(  9 -  9) =     20.38678  eV     1   --> B_2  G_4 D_2'  
     e( 10 - 10) =     21.48848  eV     1   --> A_1  G_1 D_1   

 **************************************************************************

 **************************************************************************

                    xk=(   0.05052,   0.00000,   0.00000  )

     Band symmetry, C_4v (4mm)  point group:

     e(  1 -  1) =    -45.57350  eV     1   --> A_1  G_1 D_1   
     e(  2 -  2) =     -2.59870  eV     1   --> A_1  G_1 D_1   
     e(  3 -  4) =     15.37219  eV     2   --> E    G_5 D_5   
     e(  5 -  5) =     15.47208  eV     1   --> A_1  G_1 D_1   
     e(  6 -  7) =     19.97309  eV     2   --> E    G_5 D_5   
     e(  8 -  8) =     20.00558  eV     1   --> B_1  G_3 D_2   
     e(  9 -  9) =     20.38037  eV     1   --> B_2  G_4 D_2'  
     e( 10 - 10) =     21.46381  eV     1   --> A_1  G_1 D_1   

 **************************************************************************

 **************************************************************************

                    xk=(   0.04691,   0.00000,   0.00000  )

     Band symmetry, C_4v (4mm)  point group:

     e(  1 -  1) =    -45.57355  eV     1   --> A_1  G_1 D_1   
     e(  2 -  2) =     -2.60314  eV     1   --> A_1  G_1 D_1   
     e(  3 -  4) =     15.39704  eV     2   --> E    G_5 D_5   
     e(  5 -  5) =     15.48313  eV     1   --> A_1  G_1 D_1   
     e(  6 -  7) =     20.00748  eV     2   --> E    G_5 D_5   
     e(  8 -  8) =     20.10504  eV     1   --> B_1  G_3 D_2   
     e(  9 -  9) =     20.37441  eV     1   --> B_2  G_4 D_2'  
     e( 10 - 10) =     21.44073  eV     1   --> A_1  G_1 D_1   

 **************************************************************************

 **************************************************************************

                    xk=(   0.04330,   0.00000,   0.00000  )

     Band symmetry, C_4v (4mm)  point group:

     e(  1 -  1) =    -45.57359  eV     1   --> A_1  G_1 D_1   
     e(  2 -  2) =     -2.60726  eV     1   --> A_1  G_1 D_1   
     e(  3 -  4) =     15.42013  eV     2   --> E    G_5 D_5   
     e(  5 -  5) =     15.49346  eV     1   --> A_1  G_1 D_1   
     e(  6 -  7) =     20.04228  eV     2   --> E    G_5 D_5   
     e(  8 -  8) =     20.20484  eV     1   --> B_1  G_3 D_2   
     e(  9 -  9) =     20.36889  eV     1   --> B_2  G_4 D_2'  
     e( 10 - 10) =     21.41927  eV     1   --> A_1  G_1 D_1   

 **************************************************************************

 **************************************************************************

                    xk=(   0.03969,   0.00000,   0.00000  )

     Band symmetry, C_4v (4mm)  point group:

     e(  1 -  1) =    -45.57363  eV     1   --> A_1  G_1 D_1   
     e(  2 -  2) =     -2.61104  eV     1   --> A_1  G_1 D_1   
     e(  3 -  4) =     15.44145  eV     2   --> E    G_5 D_5   
     e(  5 -  5) =     15.50303  eV     1   --> A_1  G_1 D_1   
     e(  6 -  7) =     20.07721  eV     2   --> E    G_5 D_5   
     e(  8 -  8) =     20.30493  eV     1   --> B_1  G_3 D_2   
     e(  9 -  9) =     20.36381  eV     1   --> B_2  G_4 D_2'  
     e( 10 - 10) =     21.39944  eV     1   --> A_1  G_1 D_1   

 **************************************************************************

 **************************************************************************

                    xk=(   0.03608,   0.00000,   0.00000  )

     Band symmetry, C_4v (4mm)  point group:

     e(  1 -  1) =    -45.57366  eV     1   --> A_1  G_1 D_1   
     e(  2 -  2) =     -2.61450  eV     1   --> A_1  G_1 D_1   
     e(  3 -  4) =     15.46098  eV     2   --> E    G_5 D_5   
     e(  5 -  5) =     15.51184  eV     1   --> A_1  G_1 D_1   
     e(  6 -  7) =     20.11199  eV     2   --> E    G_5 D_5   
     e(  8 -  8) =     20.35917  eV     1   --> B_2  G_4 D_2'  
     e(  9 -  9) =     20.40528  eV     1   --> B_1  G_3 D_2   
     e( 10 - 10) =     21.38126  eV     1   --> A_1  G_1 D_1   

 **************************************************************************

 **************************************************************************

                    xk=(   0.03248,   0.00000,   0.00000  )

     Band symmetry, C_4v (4mm)  point group:

     e(  1 -  1) =    -45.57369  eV     1   --> A_1  G_1 D_1   
     e(  2 -  2) =     -2.61762  eV     1   --> A_1  G_1 D_1   
     e(  3 -  4) =     15.47869  eV     2   --> E    G_5 D_5   
     e(  5 -  5) =     15.51987  eV     1   --> A_1  G_1 D_1   
     e(  6 -  7) =     20.14623  eV     2   --> E    G_5 D_5   
     e(  8 -  8) =     20.35498  eV     1   --> B_2  G_4 D_2'  
     e(  9 -  9) =     20.50583  eV     1   --> B_1  G_3 D_2   
     e( 10 - 10) =     21.36475  eV     1   --> A_1  G_1 D_1   

 **************************************************************************

 **************************************************************************

                    xk=(   0.02887,   0.00000,   0.00000  )

     Band symmetry, C_4v (4mm)  point group:

     e(  1 -  1) =    -45.57372  eV     1   --> A_1  G_1 D_1   
     e(  2 -  2) =     -2.62042  eV     1   --> A_1  G_1 D_1   
     e(  3 -  4) =     15.49458  eV     2   --> E    G_5 D_5   
     e(  5 -  5) =     15.52710  eV     1   --> A_1  G_1 D_1   
     e(  6 -  7) =     20.17950  eV     2   --> E    G_5 D_5   
     e(  8 -  8) =     20.35122  eV     1   --> B_2  G_4 D_2'  
     e(  9 -  9) =     20.60649  eV     1   --> B_1  G_3 D_2   
     e( 10 - 10) =     21.34993  eV     1   --> A_1  G_1 D_1   

 **************************************************************************

 **************************************************************************

                    xk=(   0.02526,   0.00000,   0.00000  )

     Band symmetry, C_4v (4mm)  point group:

     e(  1 -  1) =    -45.57374  eV     1   --> A_1  G_1 D_1   
     e(  2 -  2) =     -2.62289  eV     1   --> A_1  G_1 D_1   
     e(  3 -  4) =     15.50862  eV     2   --> E    G_5 D_5   
     e(  5 -  5) =     15.53351  eV     1   --> A_1  G_1 D_1   
     e(  6 -  7) =     20.21129  eV     2   --> E    G_5 D_5   
     e(  8 -  8) =     20.34791  eV     1   --> B_2  G_4 D_2'  
     e(  9 -  9) =     20.70712  eV     1   --> B_1  G_3 D_2   
     e( 10 - 10) =     21.33682  eV     1   --> A_1  G_1 D_1   

 **************************************************************************

 **************************************************************************

                    xk=(   0.02165,   0.00000,   0.00000  )

     Band symmetry, C_4v (4mm)  point group:

     e(  1 -  1) =    -45.57377  eV     1   --> A_1  G_1 D_1   
     e(  2 -  2) =     -2.62503  eV     1   --> A_1  G_1 D_1   
     e(  3 -  4) =     15.52082  eV     2   --> E    G_5 D_5   
     e(  5 -  5) =     15.53909  eV     1   --> A_1  G_1 D_1   
     e(  6 -  7) =     20.24100  eV     2   --> E    G_5 D_5   
     e(  8 -  8) =     20.34504  eV     1   --> B_2  G_4 D_2'  
     e(  9 -  9) =     20.80749  eV     1   --> B_1  G_3 D_2   
     e( 10 - 10) =     21.32543  eV     1   --> A_1  G_1 D_1   

 **************************************************************************

 **************************************************************************

                    xk=(   0.01804,   0.00000,   0.00000  )

     Band symmetry, C_4v (4mm)  point group:

     e(  1 -  1) =    -45.57378  eV     1   --> A_1  G_1 D_1   
     e(  2 -  2) =     -2.62684  eV     1   --> A_1  G_1 D_1   
     e(  3 -  4) =     15.53116  eV     2   --> E    G_5 D_5   
     e(  5 -  5) =     15.54384  eV     1   --> A_1  G_1 D_1   
     e(  6 -  7) =     20.26797  eV     2   --> E    G_5 D_5   
     e(  8 -  8) =     20.34261  eV     1   --> B_2  G_4 D_2'  
     e(  9 -  9) =     20.90723  eV     1   --> B_1  G_3 D_2   
     e( 10 - 10) =     21.31577  eV     1   --> A_1  G_1 D_1   

 **************************************************************************

 **************************************************************************

                    xk=(   0.01443,   0.00000,   0.00000  )

     Band symmetry, C_4v (4mm)  point group:

     e(  1 -  1) =    -45.57380  eV     1   --> A_1  G_1 D_1   
     e(  2 -  2) =     -2.62832  eV     1   --> A_1  G_1 D_1   
     e(  3 -  4) =     15.53962  eV     2   --> E    G_5 D_5   
     e(  5 -  5) =     15.54774  eV     1   --> A_1  G_1 D_1   
     e(  6 -  7) =     20.29148  eV     2   --> E    G_5 D_5   
     e(  8 -  8) =     20.34062  eV     1   --> B_2  G_4 D_2'  
     e(  9 -  9) =     21.00560  eV     1   --> B_1  G_3 D_2   
     e( 10 - 10) =     21.30785  eV     1   --> A_1  G_1 D_1   

 **************************************************************************

 **************************************************************************

                    xk=(   0.01083,   0.00000,   0.00000  )

     Band symmetry, C_4v (4mm)  point group:

     e(  1 -  1) =    -45.57381  eV     1   --> A_1  G_1 D_1   
     e(  2 -  2) =     -2.62947  eV     1   --> A_1  G_1 D_1   
     e(  3 -  4) =     15.54621  eV     2   --> E    G_5 D_5   
     e(  5 -  5) =     15.55078  eV     1   --> A_1  G_1 D_1   
     e(  6 -  7) =     20.31078  eV     2   --> E    G_5 D_5   
     e(  8 -  8) =     20.33907  eV     1   --> B_2  G_4 D_2'  
     e(  9 -  9) =     21.10109  eV     1   --> B_1  G_3 D_2   
     e( 10 - 10) =     21.30168  eV     1   --> A_1  G_1 D_1   

 **************************************************************************

 **************************************************************************

                    xk=(   0.00722,   0.00000,   0.00000  )

     Band symmetry, C_4v (4mm)  point group:

     e(  1 -  1) =    -45.57382  eV     1   --> A_1  G_1 D_1   
     e(  2 -  2) =     -2.63029  eV     1   --> A_1  G_1 D_1   
     e(  3 -  4) =     15.55092  eV     2   --> E    G_5 D_5   
     e(  5 -  5) =     15.55295  eV     1   --> A_1  G_1 D_1   
     e(  6 -  7) =     20.32517  eV     2   --> E    G_5 D_5   
     e(  8 -  8) =     20.33797  eV     1   --> B_2  G_4 D_2'  
     e(  9 -  9) =     21.19002  eV     1   --> B_1  G_3 D_2   
     e( 10 - 10) =     21.29727  eV     1   --> A_1  G_1 D_1   

 **************************************************************************

 **************************************************************************

                    xk=(   0.00361,   0.00000,   0.00000  )

     Band symmetry, C_4v (4mm)  point group:

     e(  1 -  1) =    -45.57382  eV     1   --> A_1  G_1 D_1   
     e(  2 -  2) =     -2.63078  eV     1   --> A_1  G_1 D_1   
     e(  3 -  4) =     15.55375  eV     2   --> E    G_5 D_5   
     e(  5 -  5) =     15.55426  eV     1   --> A_1  G_1 D_1   
     e(  6 -  7) =     20.33407  eV     2   --> E    G_5 D_5   
     e(  8 -  8) =     20.33731  eV     1   --> B_2  G_4 D_2'  
     e(  9 -  9) =     21.26246  eV     1   --> B_1  G_3 D_2   
     e( 10 - 10) =     21.29462  eV     1   --> A_1  G_1 D_1   

 **************************************************************************

 **************************************************************************

                    xk=(   0.00000,   0.00000,   0.00000  )

     point group O_h (m-3m) 
     there are 10 classes
     the character table:

       E     8C3   3C2   6C4   6C2'  i     8S6   3s_h  6S4   6s_d 
A_1g   1.00  1.00  1.00  1.00  1.00  1.00  1.00  1.00  1.00  1.00
A_2g   1.00  1.00  1.00 -1.00 -1.00  1.00  1.00  1.00 -1.00 -1.00
E_g    2.00 -1.00  2.00  0.00  0.00  2.00 -1.00  2.00  0.00  0.00
T_1g   3.00  0.00 -1.00  1.00 -1.00  3.00  0.00 -1.00  1.00 -1.00
T_2g   3.00  0.00 -1.00 -1.00  1.00  3.00  0.00 -1.00 -1.00  1.00
A_1u   1.00  1.00  1.00  1.00  1.00 -1.00 -1.00 -1.00 -1.00 -1.00
A_2u   1.00  1.00  1.00 -1.00 -1.00 -1.00 -1.00 -1.00  1.00  1.00
E_u    2.00 -1.00  2.00  0.00  0.00 -2.00  1.00 -2.00  0.00  0.00
T_1u   3.00  0.00 -1.00  1.00 -1.00 -3.00  0.00  1.00 -1.00  1.00
T_2u   3.00  0.00 -1.00 -1.00  1.00 -3.00  0.00  1.00  1.00 -1.00

     the symmetry operations in each class and the name of the first element:

     E        1
                                                                 
     8C3     17   19   20   18   24   21   22   23
                                                                 
     3C2      2    4    3
                                                                 
     6C4      7    8   15   16   12   11
                                                                 
     6C2'     5    6   14   13   10    9
                                                                 
     i       25
                                                                 
     8S6     41   43   44   42   48   45   46   47
                                                                 
     3s_h    26   28   27
                                                                 
     6S4     31   32   39   40   36   35
                                                                 
     6s_d    29   30   38   37   34   33
                                                                 

     Band symmetry, O_h (m-3m)  point group:

     e(  1 -  1) =    -45.57383  eV     1   --> A_1g G_1   G_1+
     e(  2 -  2) =     -2.63095  eV     1   --> A_1g G_1   G_1+
     e(  3 -  5) =     15.55469  eV     3   --> T_1u G_15  G_4-
     e(  6 -  8) =     20.33708  eV     3   --> T_2g G_25' G_5+
     e(  9 - 10) =     21.29373  eV     2   --> E_g  G_12  G_3+

 **************************************************************************
 
     BANDS        :     22.68s CPU     34.54s WALL

 
   This run was terminated on:  21:58:39  31May2026            

=------------------------------------------------------------------------------=
   JOB DONE.
=------------------------------------------------------------------------------=
