
     Program PWSCF v.7.1 starts on 31May2026 at 21:56:54 

     This program is part of the open-source Quantum ESPRESSO suite
     for quantum simulation of materials; please cite
         "P. Giannozzi et al., J. Phys.:Condens. Matter 21 395502 (2009);
         "P. Giannozzi et al., J. Phys.:Condens. Matter 29 465901 (2017);
         "P. Giannozzi et al., J. Chem. Phys. 152 154105 (2020);
          URL http://www.quantum-espresso.org", 
     in publications or presentations arising from this work. More details at
     http://www.quantum-espresso.org/quote

     Parallel version (MPI & OpenMP), running on       7 processor cores
     Number of MPI processes:                 7
     Threads/MPI process:                     1

     MPI processes distributed on     7 nodes
     223568 MiB available memory on the printing compute node when the environment starts
 
     Waiting for input...
     Reading input from standard input
Warning: card &CELL ignored
Warning: card / ignored
Warning: card / ignored

     Current dimensions of program PWSCF are:
     Max number of different atomic species (ntypx) = 10
     Max number of k-points (npk) =  40000
     Max angular momentum in pseudopotentials (lmaxx) =  4
     Message from routine setup:
     using ibrav=0 with symmetry is DISCOURAGED, use correct ibrav instead
 
     R & G space division:  proc/nbgrp/npool/nimage =       7
     Subspace diagonalization in iterative solution of the eigenvalue problem:
     a serial algorithm will be used

 
     Parallelization info
     --------------------
     sticks:   dense  smooth     PW     G-vecs:    dense   smooth      PW
     Min         150      59     24                 3130      783     201
     Max         151      61     25                 3133      783     203
     Sum        1051     419    169                21913     5481    1409
 
     Using Slab Decomposition
 


     bravais-lattice index     =            0
     lattice parameter (alat)  =       5.6216  a.u.
     unit-cell volume          =     136.7561 (a.u.)^3
     number of atoms/cell      =            1
     number of atomic types    =            1
     number of electrons       =         3.00
     number of Kohn-Sham states=            6
     kinetic-energy cutoff     =      45.0000  Ry
     charge density cutoff     =     450.0000  Ry
     scf convergence threshold =      1.0E-08
     mixing beta               =       0.0750
     number of iterations used =            8  plain     mixing
     Exchange-correlation=  SLA  PW   PBX  PBC
                           (   1   4   3   4   0   0   0)

     celldm(1)=   5.621552  celldm(2)=   0.000000  celldm(3)=   0.000000
     celldm(4)=   0.000000  celldm(5)=   0.000000  celldm(6)=   0.000000

     crystal axes: (cart. coord. in units of alat)
               a(1) = (  -0.577350   0.577350   0.577350 )  
               a(2) = (   0.577350  -0.577350   0.577350 )  
               a(3) = (   0.577350   0.577350  -0.577350 )  

     reciprocal axes: (cart. coord. in units 2 pi/alat)
               b(1) = (  0.000000  0.866025  0.866025 )  
               b(2) = (  0.866025  0.000000  0.866025 )  
               b(3) = (  0.866025  0.866025  0.000000 )  


     PseudoPot. # 1 for Li read from file:
     /home/k0750/k075000/PSPOT/li_pbe_v1.4.uspp.F.UPF
     MD5 check sum: e912e257baa3777c20ea3d68f190483c
     Pseudo is Ultrasoft, Zval =  3.0
     Generated by new atomic code, or converted to UPF format
     Using radial grid of  751 points,  5 beta functions with: 
                l(1) =   0
                l(2) =   0
                l(3) =   0
                l(4) =   1
                l(5) =   1
     Q(r) pseudized with 10 coefficients,  rinner =    1.150   1.150   1.150


     atomic species   valence    mass     pseudopotential
        Li             3.00     3.00000     Li( 1.00)

     48 Sym. Ops., with inversion, found



   Cartesian axes

     site n.     atom                  positions (alat units)
         1           Li  tau(   1) = (   0.0000000   0.0000000   0.0000000  )

     number of k points=   256  Gaussian smearing, width (Ry)=  0.0200

     Number of k-points >= 100: set verbosity='high' to print them.

     Dense  grid:    21913 G-vectors     FFT dimensions: (  40,  40,  40)

     Smooth grid:     5481 G-vectors     FFT dimensions: (  25,  25,  25)

     Estimated max dynamical RAM per process >       7.57 MB

     Estimated total dynamical RAM >      53.00 MB

     Initial potential from superposition of free atoms

     starting charge       2.5493, renormalised to       3.0000
     Starting wfcs are    5 randomized atomic wfcs +    1 random wfcs

     total cpu time spent up to now is        0.9 secs

     Self-consistent Calculation

     iteration #  1     ecut=    45.00 Ry     beta= 0.07
     Davidson diagonalization with overlap
     ethr =  1.00E-02,  avg # of iterations =  6.6

     total cpu time spent up to now is        1.9 secs

     total energy              =     -14.56735869 Ry
     estimated scf accuracy    <       0.16143366 Ry

     iteration #  2     ecut=    45.00 Ry     beta= 0.07
     Davidson diagonalization with overlap
     ethr =  5.38E-03,  avg # of iterations =  1.0

     total cpu time spent up to now is        2.4 secs

     total energy              =     -14.45850265 Ry
     estimated scf accuracy    <       0.13843572 Ry

     iteration #  3     ecut=    45.00 Ry     beta= 0.07
     Davidson diagonalization with overlap
     ethr =  4.61E-03,  avg # of iterations =  1.2

     total cpu time spent up to now is        2.8 secs

     total energy              =     -14.47178028 Ry
     estimated scf accuracy    <       0.00309505 Ry

     iteration #  4     ecut=    45.00 Ry     beta= 0.07
     Davidson diagonalization with overlap
     ethr =  1.03E-04,  avg # of iterations =  3.7

     total cpu time spent up to now is        3.4 secs

     total energy              =     -14.47349365 Ry
     estimated scf accuracy    <       0.00070690 Ry

     iteration #  5     ecut=    45.00 Ry     beta= 0.07
     Davidson diagonalization with overlap
     ethr =  2.36E-05,  avg # of iterations =  2.7

     total cpu time spent up to now is        4.0 secs

     total energy              =     -14.47255884 Ry
     estimated scf accuracy    <       0.00137896 Ry

     iteration #  6     ecut=    45.00 Ry     beta= 0.07
     Davidson diagonalization with overlap
     ethr =  2.36E-05,  avg # of iterations =  2.0

     total cpu time spent up to now is        4.5 secs

     total energy              =     -14.47274990 Ry
     estimated scf accuracy    <       0.00000417 Ry

     iteration #  7     ecut=    45.00 Ry     beta= 0.07
     Davidson diagonalization with overlap
     c_bands:  1 eigenvalues not converged
     c_bands:  1 eigenvalues not converged
     c_bands:  1 eigenvalues not converged
     c_bands:  1 eigenvalues not converged
     c_bands:  1 eigenvalues not converged
     ethr =  1.39E-07,  avg # of iterations =  5.0

     total cpu time spent up to now is        5.2 secs

     total energy              =     -14.47276441 Ry
     estimated scf accuracy    <       0.00011886 Ry

     iteration #  8     ecut=    45.00 Ry     beta= 0.07
     Davidson diagonalization with overlap
     ethr =  1.39E-07,  avg # of iterations =  1.1

     total cpu time spent up to now is        5.7 secs

     total energy              =     -14.47268114 Ry
     estimated scf accuracy    <       0.00011790 Ry

     iteration #  9     ecut=    45.00 Ry     beta= 0.07
     Davidson diagonalization with overlap
     ethr =  1.39E-07,  avg # of iterations =  2.4

     total cpu time spent up to now is        6.2 secs

     total energy              =     -14.47269034 Ry
     estimated scf accuracy    <       0.00000004 Ry

     iteration # 10     ecut=    45.00 Ry     beta= 0.07
     Davidson diagonalization with overlap
     ethr =  1.25E-09,  avg # of iterations =  2.5

     total cpu time spent up to now is        6.7 secs

     total energy              =     -14.47269040 Ry
     estimated scf accuracy    <       0.00000004 Ry

     iteration # 11     ecut=    45.00 Ry     beta= 0.07
     Davidson diagonalization with overlap
     ethr =  1.25E-09,  avg # of iterations =  1.0

     total cpu time spent up to now is        7.2 secs

     total energy              =     -14.47269045 Ry
     estimated scf accuracy    <       0.00000004 Ry

     iteration # 12     ecut=    45.00 Ry     beta= 0.07
     Davidson diagonalization with overlap
     ethr =  1.25E-09,  avg # of iterations =  1.2

     total cpu time spent up to now is        7.6 secs

     total energy              =     -14.47269047 Ry
     estimated scf accuracy    <       0.00000011 Ry

     iteration # 13     ecut=    45.00 Ry     beta= 0.07
     Davidson diagonalization with overlap
     ethr =  1.25E-09,  avg # of iterations =  1.0

     total cpu time spent up to now is        8.1 secs

     End of self-consistent calculation

     Number of k-points >= 100: set verbosity='high' to print the bands.

     the Fermi energy is     0.9452 ev

!    total energy              =     -14.47269059 Ry
     estimated scf accuracy    <          3.9E-09 Ry
     smearing contrib. (-TS)   =      -0.00129115 Ry
     internal energy E=F+TS    =     -14.47139944 Ry

     The total energy is F=E-TS. E is the sum of the following terms:
     one-electron contribution =      -9.70967053 Ry
     hartree contribution      =       3.66113826 Ry
     xc contribution           =      -3.37710453 Ry
     ewald contribution        =      -5.04576264 Ry

     convergence has been achieved in  13 iterations

     Forces acting on atoms (cartesian axes, Ry/au):

     atom    1 type  1   force =     0.00000000    0.00000000    0.00000000

     Total force =     0.000000     Total SCF correction =     0.000000

     Writing all to output data dir ./data/scf.save/
 
     init_run     :      0.26s CPU      0.41s WALL (       1 calls)
     electrons    :      6.37s CPU      7.28s WALL (       1 calls)
     forces       :      0.04s CPU      0.04s WALL (       1 calls)

     Called by init_run:
     wfcinit      :      0.14s CPU      0.18s WALL (       1 calls)
     potinit      :      0.01s CPU      0.04s WALL (       1 calls)
     hinit0       :      0.09s CPU      0.15s WALL (       1 calls)

     Called by electrons:
     c_bands      :      5.35s CPU      5.98s WALL (      13 calls)
     sum_band     :      0.92s CPU      1.00s WALL (      13 calls)
     v_of_rho     :      0.05s CPU      0.09s WALL (      14 calls)
     newd         :      0.02s CPU      0.03s WALL (      14 calls)
     mix_rho      :      0.01s CPU      0.04s WALL (      13 calls)

     Called by c_bands:
     init_us_2    :      0.09s CPU      0.09s WALL (    7168 calls)
     init_us_2:cp :      0.08s CPU      0.08s WALL (    7168 calls)
     cegterg      :      5.01s CPU      5.36s WALL (    3328 calls)

     Called by *egterg:
     cdiaghg      :      0.41s CPU      0.46s WALL (   11380 calls)
     h_psi        :      3.80s CPU      4.07s WALL (   11636 calls)
     s_psi        :      0.04s CPU      0.04s WALL (   11636 calls)
     g_psi        :      0.02s CPU      0.02s WALL (    8052 calls)

     Called by h_psi:
     h_psi:calbec :      0.29s CPU      0.32s WALL (   11636 calls)
     vloc_psi     :      3.42s CPU      3.66s WALL (   11636 calls)
     add_vuspsi   :      0.04s CPU      0.05s WALL (   11636 calls)

     General routines
     calbec       :      0.39s CPU      0.42s WALL (   15988 calls)
     fft          :      0.11s CPU      0.21s WALL (     182 calls)
     ffts         :      0.00s CPU      0.01s WALL (      27 calls)
     fftw         :      3.83s CPU      4.09s WALL (  120238 calls)
     interpolate  :      0.00s CPU      0.01s WALL (      14 calls)
 
     Parallel routines
 
     PWSCF        :      6.93s CPU     14.54s WALL

 
   This run was terminated on:  21:57: 8  31May2026            

=------------------------------------------------------------------------------=
   JOB DONE.
=------------------------------------------------------------------------------=
