
     Program PWSCF v.7.1 starts on 11Jun2026 at  3:34:19 

     This program is part of the open-source Quantum ESPRESSO suite
     for quantum simulation of materials; please cite
         "P. Giannozzi et al., J. Phys.:Condens. Matter 21 395502 (2009);
         "P. Giannozzi et al., J. Phys.:Condens. Matter 29 465901 (2017);
         "P. Giannozzi et al., J. Chem. Phys. 152 154105 (2020);
          URL http://www.quantum-espresso.org", 
     in publications or presentations arising from this work. More details at
     http://www.quantum-espresso.org/quote

     Parallel version (MPI & OpenMP), running on       7 processor cores
     Number of MPI processes:                 7
     Threads/MPI process:                     1

     MPI processes distributed on     7 nodes
     223963 MiB available memory on the printing compute node when the environment starts
 
     Waiting for input...
     Reading input from standard input
Warning: card &CELL ignored
Warning: card / ignored
Warning: card &FCP ignored
Warning: card / ignored
Warning: card &RISM ignored
Warning: card / ignored

     Current dimensions of program PWSCF are:
     Max number of different atomic species (ntypx) = 10
     Max number of k-points (npk) =  40000
     Max angular momentum in pseudopotentials (lmaxx) =  4
     Message from routine setup:
     using ibrav=0 with symmetry is DISCOURAGED, use correct ibrav instead
 
     R & G space division:  proc/nbgrp/npool/nimage =       7
     Subspace diagonalization in iterative solution of the eigenvalue problem:
     a serial algorithm will be used

 
     Parallelization info
     --------------------
     sticks:   dense  smooth     PW     G-vecs:    dense   smooth      PW
     Min          85      34     12                13719     3470     656
     Max          85      35     13                13743     3495     671
     Sum         595     241     85                96091    24369    4635
 
     Using Slab Decomposition
 


     bravais-lattice index     =            0
     lattice parameter (alat)  =       4.6633  a.u.
     unit-cell volume          =     711.7853 (a.u.)^3
     number of atoms/cell      =            4
     number of atomic types    =            1
     number of electrons       =        16.00
     number of Kohn-Sham states=           12
     kinetic-energy cutoff     =      40.0000  Ry
     charge density cutoff     =     400.0000  Ry
     scf convergence threshold =      1.0E-08
     mixing beta               =       0.3000
     number of iterations used =            8  plain     mixing
     Exchange-correlation= SLA  PW   PBE  PBE
                           (   1   4   3   4   0   0   0)

     celldm(1)=   4.663315  celldm(2)=   0.000000  celldm(3)=   0.000000
     celldm(4)=   0.000000  celldm(5)=   0.000000  celldm(6)=   0.000000

     crystal axes: (cart. coord. in units of alat)
               a(1) = (   1.000000   0.000000   0.000000 )  
               a(2) = (  -0.500000   0.866025   0.000000 )  
               a(3) = (   0.000000   0.000000   8.104647 )  

     reciprocal axes: (cart. coord. in units 2 pi/alat)
               b(1) = (  1.000000  0.577350  0.000000 )  
               b(2) = (  0.000000  1.154701  0.000000 )  
               b(3) = (  0.000000  0.000000  0.123386 )  


     PseudoPot. # 1 for C  read from file:
     /home/k0750/k075000/PSPOT/c_pbe_v1.2.uspp.F.UPF
     MD5 check sum: d1aef80898a10debaa0f26306b886e00
     Pseudo is Ultrasoft + core correction, Zval =  4.0
     Generated by new atomic code, or converted to UPF format
     Using radial grid of  721 points,  4 beta functions with: 
                l(1) =   0
                l(2) =   0
                l(3) =   1
                l(4) =   1
     Q(r) pseudized with  8 coefficients,  rinner =    1.100   1.100   1.100


     atomic species   valence    mass     pseudopotential
        C              4.00    12.01100     C ( 1.00)

      8 Sym. Ops., with inversion, found ( 4 have fractional translation)



   Cartesian axes

     site n.     atom                  positions (alat units)
         1           C   tau(   1) = (   0.0000000   0.0000000   6.0784854  )
         2           C   tau(   2) = (   0.0000000   0.0000000   2.0261618  )
         3           C   tau(   3) = (  -0.0000050   0.5773532   6.0784854  )
         4           C   tau(   4) = (   0.5000050   0.2886722   2.0261618  )

     number of k points=   215  Marzari-Vanderbilt smearing, width (Ry)=  0.0100

     Number of k-points >= 100: set verbosity='high' to print them.

     Dense  grid:    96091 G-vectors     FFT dimensions: (  30,  30, 250)

     Smooth grid:    24369 G-vectors     FFT dimensions: (  20,  20, 160)

     Estimated max dynamical RAM per process >      36.89 MB

     Estimated total dynamical RAM >     258.26 MB

     Initial potential from superposition of free atoms

     starting charge      15.9998, renormalised to      16.0000

     negative rho (up, down):  1.452E-07 0.000E+00
     Starting wfcs are   16 randomized atomic wfcs

     total cpu time spent up to now is        1.2 secs

     Self-consistent Calculation

     iteration #  1     ecut=    40.00 Ry     beta= 0.30
     Davidson diagonalization with overlap
     ethr =  1.00E-02,  avg # of iterations =  2.6

     negative rho (up, down):  3.950E-06 0.000E+00

     total cpu time spent up to now is        3.6 secs

     total energy              =     -46.01055089 Ry
     estimated scf accuracy    <       0.37751093 Ry

     iteration #  2     ecut=    40.00 Ry     beta= 0.30
     Davidson diagonalization with overlap
     ethr =  2.36E-03,  avg # of iterations =  1.2

     negative rho (up, down):  9.052E-05 0.000E+00

     total cpu time spent up to now is        5.3 secs

     total energy              =     -45.93568893 Ry
     estimated scf accuracy    <       0.13899159 Ry

     iteration #  3     ecut=    40.00 Ry     beta= 0.30
     Davidson diagonalization with overlap
     ethr =  8.69E-04,  avg # of iterations =  3.8

     negative rho (up, down):  7.823E-05 0.000E+00

     total cpu time spent up to now is        7.7 secs

     total energy              =     -45.96332920 Ry
     estimated scf accuracy    <       0.00386412 Ry

     iteration #  4     ecut=    40.00 Ry     beta= 0.30
     Davidson diagonalization with overlap
     c_bands:  1 eigenvalues not converged
     c_bands:  2 eigenvalues not converged
     c_bands:  2 eigenvalues not converged
     c_bands:  2 eigenvalues not converged
     c_bands:  1 eigenvalues not converged
     c_bands:  1 eigenvalues not converged
     c_bands:  1 eigenvalues not converged
     c_bands:  1 eigenvalues not converged
     c_bands:  1 eigenvalues not converged
     c_bands:  2 eigenvalues not converged
     c_bands:  2 eigenvalues not converged
     c_bands:  2 eigenvalues not converged
     c_bands:  1 eigenvalues not converged
     c_bands:  1 eigenvalues not converged
     c_bands:  1 eigenvalues not converged
     c_bands:  1 eigenvalues not converged
     ethr =  2.42E-05,  avg # of iterations =  8.9

     negative rho (up, down):  1.253E-04 0.000E+00

     total cpu time spent up to now is       11.1 secs

     total energy              =     -45.95855927 Ry
     estimated scf accuracy    <       0.01475598 Ry

     iteration #  5     ecut=    40.00 Ry     beta= 0.30
     Davidson diagonalization with overlap
     ethr =  2.42E-05,  avg # of iterations =  4.0

     negative rho (up, down):  1.249E-04 0.000E+00

     total cpu time spent up to now is       13.7 secs

     total energy              =     -45.96104208 Ry
     estimated scf accuracy    <       0.00002127 Ry

     iteration #  6     ecut=    40.00 Ry     beta= 0.30
     Davidson diagonalization with overlap
     c_bands:  1 eigenvalues not converged
     ethr =  1.33E-07,  avg # of iterations =  3.9

     negative rho (up, down):  1.292E-04 0.000E+00

     total cpu time spent up to now is       16.2 secs

     total energy              =     -45.96105064 Ry
     estimated scf accuracy    <       0.00000204 Ry

     iteration #  7     ecut=    40.00 Ry     beta= 0.30
     Davidson diagonalization with overlap
     ethr =  1.28E-08,  avg # of iterations =  1.9

     negative rho (up, down):  1.326E-04 0.000E+00

     total cpu time spent up to now is       18.1 secs

     total energy              =     -45.96104999 Ry
     estimated scf accuracy    <       0.00000212 Ry

     iteration #  8     ecut=    40.00 Ry     beta= 0.30
     Davidson diagonalization with overlap
     ethr =  1.28E-08,  avg # of iterations =  2.0

     negative rho (up, down):  1.357E-04 0.000E+00

     total cpu time spent up to now is       19.9 secs

     total energy              =     -45.96105022 Ry
     estimated scf accuracy    <       0.00000013 Ry

     iteration #  9     ecut=    40.00 Ry     beta= 0.30
     Davidson diagonalization with overlap
     ethr =  8.04E-10,  avg # of iterations =  2.0

     negative rho (up, down):  1.381E-04 0.000E+00

     total cpu time spent up to now is       21.8 secs

     total energy              =     -45.96105028 Ry
     estimated scf accuracy    <       0.00000002 Ry

     iteration # 10     ecut=    40.00 Ry     beta= 0.30
     Davidson diagonalization with overlap
     ethr =  1.00E-10,  avg # of iterations =  1.7

     negative rho (up, down):  1.449E-04 0.000E+00

     total cpu time spent up to now is       23.5 secs

     End of self-consistent calculation

     Number of k-points >= 100: set verbosity='high' to print the bands.

     the Fermi energy is    -0.4592 ev

!    total energy              =     -45.96105033 Ry
     estimated scf accuracy    <          3.9E-09 Ry
     smearing contrib. (-TS)   =      -0.00018232 Ry
     internal energy E=F+TS    =     -45.96086801 Ry

     The total energy is F=E-TS. E is the sum of the following terms:
     one-electron contribution =    -180.95204001 Ry
     hartree contribution      =      94.00996056 Ry
     xc contribution           =     -14.52599608 Ry
     ewald contribution        =      55.50720752 Ry

     convergence has been achieved in  10 iterations

     negative rho (up, down):  1.449E-04 0.000E+00

     Forces acting on atoms (cartesian axes, Ry/au):

     atom    1 type  1   force =    -0.00002016    0.00001164    0.00000000
     atom    2 type  1   force =     0.00002016   -0.00001164    0.00000000
     atom    3 type  1   force =     0.00002018   -0.00001165    0.00000000
     atom    4 type  1   force =    -0.00002018    0.00001165    0.00000000

     Total force =     0.000047     Total SCF correction =     0.000000


     Computing stress (Cartesian axis) and pressure


     negative rho (up, down):  1.449E-04 0.000E+00
          total   stress  (Ry/bohr**3)                   (kbar)     P=       -2.60
  -0.00002215  -0.00000000   0.00000000           -3.26       -0.00        0.00
  -0.00000000  -0.00002215   0.00000000           -0.00       -3.26        0.00
   0.00000000   0.00000000  -0.00000875            0.00        0.00       -1.29


     Writing all to output data dir ./tmp/graphite_d_10p00000.save/
 
     init_run     :      1.05s CPU      1.15s WALL (       1 calls)
     electrons    :     21.55s CPU     22.33s WALL (       1 calls)
     forces       :      0.19s CPU      0.19s WALL (       1 calls)
     stress       :      0.43s CPU      0.43s WALL (       1 calls)

     Called by init_run:
     wfcinit      :      0.82s CPU      0.84s WALL (       1 calls)
     potinit      :      0.05s CPU      0.07s WALL (       1 calls)
     hinit0       :      0.05s CPU      0.10s WALL (       1 calls)

     Called by electrons:
     c_bands      :     18.37s CPU     19.02s WALL (      10 calls)
     sum_band     :      2.92s CPU      3.01s WALL (      10 calls)
     v_of_rho     :      0.18s CPU      0.21s WALL (      11 calls)
     newd         :      0.06s CPU      0.07s WALL (      11 calls)
     mix_rho      :      0.02s CPU      0.02s WALL (      10 calls)

     Called by c_bands:
     init_us_2    :      0.25s CPU      0.26s WALL (    4945 calls)
     init_us_2:cp :      0.24s CPU      0.25s WALL (    4945 calls)
     cegterg      :     17.43s CPU     17.82s WALL (    2150 calls)

     Called by *egterg:
     cdiaghg      :      1.12s CPU      1.16s WALL (    9076 calls)
     h_psi        :     14.71s CPU     15.03s WALL (    9291 calls)
     s_psi        :      0.33s CPU      0.33s WALL (    9291 calls)
     g_psi        :      0.08s CPU      0.08s WALL (    6926 calls)

     Called by h_psi:
     h_psi:calbec :      0.63s CPU      0.65s WALL (    9291 calls)
     vloc_psi     :     13.68s CPU     13.98s WALL (    9291 calls)
     add_vuspsi   :      0.33s CPU      0.34s WALL (    9291 calls)

     General routines
     calbec       :      0.91s CPU      0.93s WALL (   12516 calls)
     fft          :      0.18s CPU      0.27s WALL (     166 calls)
     ffts         :      0.00s CPU      0.01s WALL (      21 calls)
     fftw         :     15.09s CPU     15.42s WALL (  176166 calls)
     interpolate  :      0.01s CPU      0.01s WALL (      11 calls)
 
     Parallel routines
 
     PWSCF        :     23.92s CPU     25.42s WALL

 
   This run was terminated on:   3:34:44  11Jun2026            

=------------------------------------------------------------------------------=
   JOB DONE.
=------------------------------------------------------------------------------=
