
     Program PWSCF v.7.1 starts on 11Jun2026 at  3:35: 8 

     This program is part of the open-source Quantum ESPRESSO suite
     for quantum simulation of materials; please cite
         "P. Giannozzi et al., J. Phys.:Condens. Matter 21 395502 (2009);
         "P. Giannozzi et al., J. Phys.:Condens. Matter 29 465901 (2017);
         "P. Giannozzi et al., J. Chem. Phys. 152 154105 (2020);
          URL http://www.quantum-espresso.org", 
     in publications or presentations arising from this work. More details at
     http://www.quantum-espresso.org/quote

     Parallel version (MPI & OpenMP), running on       7 processor cores
     Number of MPI processes:                 7
     Threads/MPI process:                     1

     MPI processes distributed on     7 nodes
     223756 MiB available memory on the printing compute node when the environment starts
 
     Waiting for input...
     Reading input from standard input
Warning: card &CELL ignored
Warning: card / ignored
Warning: card &FCP ignored
Warning: card / ignored
Warning: card &RISM ignored
Warning: card / ignored

     Current dimensions of program PWSCF are:
     Max number of different atomic species (ntypx) = 10
     Max number of k-points (npk) =  40000
     Max angular momentum in pseudopotentials (lmaxx) =  4
     Message from routine setup:
     using ibrav=0 with symmetry is DISCOURAGED, use correct ibrav instead
 
     R & G space division:  proc/nbgrp/npool/nimage =       7
     Subspace diagonalization in iterative solution of the eigenvalue problem:
     a serial algorithm will be used

 
     Parallelization info
     --------------------
     sticks:   dense  smooth     PW     G-vecs:    dense   smooth      PW
     Min          85      34     12                 4115     1038     198
     Max          85      35     13                 4123     1047     203
     Sum         595     241     85                28819     7305    1395
 
     Using Slab Decomposition
 


     bravais-lattice index     =            0
     lattice parameter (alat)  =       4.6633  a.u.
     unit-cell volume          =     213.5356 (a.u.)^3
     number of atoms/cell      =            4
     number of atomic types    =            1
     number of electrons       =        16.00
     number of Kohn-Sham states=           12
     kinetic-energy cutoff     =      40.0000  Ry
     charge density cutoff     =     400.0000  Ry
     scf convergence threshold =      1.0E-08
     mixing beta               =       0.3000
     number of iterations used =            8  plain     mixing
     Exchange-correlation= SLA  PW   PBE  PBE
                           (   1   4   3   4   0   0   0)

     celldm(1)=   4.663315  celldm(2)=   0.000000  celldm(3)=   0.000000
     celldm(4)=   0.000000  celldm(5)=   0.000000  celldm(6)=   0.000000

     crystal axes: (cart. coord. in units of alat)
               a(1) = (   1.000000   0.000000   0.000000 )  
               a(2) = (  -0.500000   0.866025   0.000000 )  
               a(3) = (   0.000000   0.000000   2.431394 )  

     reciprocal axes: (cart. coord. in units 2 pi/alat)
               b(1) = (  1.000000  0.577350  0.000000 )  
               b(2) = (  0.000000  1.154701  0.000000 )  
               b(3) = (  0.000000  0.000000  0.411287 )  


     PseudoPot. # 1 for C  read from file:
     /home/k0750/k075000/PSPOT/c_pbe_v1.2.uspp.F.UPF
     MD5 check sum: d1aef80898a10debaa0f26306b886e00
     Pseudo is Ultrasoft + core correction, Zval =  4.0
     Generated by new atomic code, or converted to UPF format
     Using radial grid of  721 points,  4 beta functions with: 
                l(1) =   0
                l(2) =   0
                l(3) =   1
                l(4) =   1
     Q(r) pseudized with  8 coefficients,  rinner =    1.100   1.100   1.100


     atomic species   valence    mass     pseudopotential
        C              4.00    12.01100     C ( 1.00)

      8 Sym. Ops., with inversion, found ( 4 have fractional translation)



   Cartesian axes

     site n.     atom                  positions (alat units)
         1           C   tau(   1) = (   0.0000000   0.0000000   1.8235456  )
         2           C   tau(   2) = (   0.0000000   0.0000000   0.6078485  )
         3           C   tau(   3) = (  -0.0000050   0.5773532   1.8235456  )
         4           C   tau(   4) = (   0.5000050   0.2886722   0.6078485  )

     number of k points=   215  Marzari-Vanderbilt smearing, width (Ry)=  0.0100

     Number of k-points >= 100: set verbosity='high' to print them.

     Dense  grid:    28819 G-vectors     FFT dimensions: (  30,  30,  80)

     Smooth grid:     7305 G-vectors     FFT dimensions: (  20,  20,  48)

     Estimated max dynamical RAM per process >      11.46 MB

     Estimated total dynamical RAM >      80.24 MB

     Initial potential from superposition of free atoms

     starting charge      15.9998, renormalised to      16.0000
     Starting wfcs are   16 randomized atomic wfcs

     total cpu time spent up to now is        0.5 secs

     Self-consistent Calculation

     iteration #  1     ecut=    40.00 Ry     beta= 0.30
     Davidson diagonalization with overlap
     ethr =  1.00E-02,  avg # of iterations =  2.7

     total cpu time spent up to now is        1.6 secs

     total energy              =     -45.98999252 Ry
     estimated scf accuracy    <       0.34837390 Ry

     iteration #  2     ecut=    40.00 Ry     beta= 0.30
     Davidson diagonalization with overlap
     ethr =  2.18E-03,  avg # of iterations =  1.2

     total cpu time spent up to now is        2.3 secs

     total energy              =     -45.92550845 Ry
     estimated scf accuracy    <       0.12818114 Ry

     iteration #  3     ecut=    40.00 Ry     beta= 0.30
     Davidson diagonalization with overlap
     ethr =  8.01E-04,  avg # of iterations =  3.5

     total cpu time spent up to now is        3.4 secs

     total energy              =     -45.94530341 Ry
     estimated scf accuracy    <       0.00219447 Ry

     iteration #  4     ecut=    40.00 Ry     beta= 0.30
     Davidson diagonalization with overlap
     c_bands:  1 eigenvalues not converged
     ethr =  1.37E-05,  avg # of iterations =  5.3

     total cpu time spent up to now is        4.7 secs

     total energy              =     -45.94493951 Ry
     estimated scf accuracy    <       0.00226146 Ry

     iteration #  5     ecut=    40.00 Ry     beta= 0.30
     Davidson diagonalization with overlap
     ethr =  1.37E-05,  avg # of iterations =  2.2

     total cpu time spent up to now is        5.6 secs

     total energy              =     -45.94526511 Ry
     estimated scf accuracy    <       0.00000824 Ry

     iteration #  6     ecut=    40.00 Ry     beta= 0.30
     Davidson diagonalization with overlap
     ethr =  5.15E-08,  avg # of iterations =  3.5

     total cpu time spent up to now is        6.6 secs

     total energy              =     -45.94526595 Ry
     estimated scf accuracy    <       0.00000376 Ry

     iteration #  7     ecut=    40.00 Ry     beta= 0.30
     Davidson diagonalization with overlap
     ethr =  2.35E-08,  avg # of iterations =  2.0

     total cpu time spent up to now is        7.4 secs

     total energy              =     -45.94526672 Ry
     estimated scf accuracy    <       0.00000017 Ry

     iteration #  8     ecut=    40.00 Ry     beta= 0.30
     Davidson diagonalization with overlap
     ethr =  1.05E-09,  avg # of iterations =  2.0

     total cpu time spent up to now is        8.3 secs

     End of self-consistent calculation

     Number of k-points >= 100: set verbosity='high' to print the bands.

     the Fermi energy is     8.2658 ev

!    total energy              =     -45.94526693 Ry
     estimated scf accuracy    <          1.1E-09 Ry
     smearing contrib. (-TS)   =      -0.00008658 Ry
     internal energy E=F+TS    =     -45.94518036 Ry

     The total energy is F=E-TS. E is the sum of the following terms:
     one-electron contribution =      -2.95021826 Ry
     hartree contribution      =      10.21860000 Ry
     xc contribution           =     -14.56580732 Ry
     ewald contribution        =     -38.64775477 Ry

     convergence has been achieved in   8 iterations

     Forces acting on atoms (cartesian axes, Ry/au):

     atom    1 type  1   force =    -0.00002500    0.00001443    0.00000000
     atom    2 type  1   force =     0.00002500   -0.00001443    0.00000000
     atom    3 type  1   force =     0.00002513   -0.00001451    0.00000000
     atom    4 type  1   force =    -0.00002513    0.00001451    0.00000000

     Total force =     0.000058     Total SCF correction =     0.000002


     Computing stress (Cartesian axis) and pressure

          total   stress  (Ry/bohr**3)                   (kbar)     P=       23.23
  -0.00014361  -0.00000008   0.00000000          -21.13       -0.01        0.00
  -0.00000008  -0.00014371   0.00000000           -0.01      -21.14        0.00
   0.00000000   0.00000000   0.00076096            0.00        0.00      111.94


     Writing all to output data dir ./tmp/graphite_d_3p00000.save/
 
     init_run     :      0.38s CPU      0.46s WALL (       1 calls)
     electrons    :      7.31s CPU      7.86s WALL (       1 calls)
     forces       :      0.09s CPU      0.09s WALL (       1 calls)
     stress       :      0.15s CPU      0.16s WALL (       1 calls)

     Called by init_run:
     wfcinit      :      0.33s CPU      0.35s WALL (       1 calls)
     potinit      :      0.01s CPU      0.03s WALL (       1 calls)
     hinit0       :      0.03s CPU      0.06s WALL (       1 calls)

     Called by electrons:
     c_bands      :      6.30s CPU      6.74s WALL (       8 calls)
     sum_band     :      0.95s CPU      1.01s WALL (       8 calls)
     v_of_rho     :      0.03s CPU      0.07s WALL (       9 calls)
     newd         :      0.02s CPU      0.02s WALL (       9 calls)
     mix_rho      :      0.01s CPU      0.01s WALL (       8 calls)

     Called by c_bands:
     init_us_2    :      0.07s CPU      0.08s WALL (    4085 calls)
     init_us_2:cp :      0.07s CPU      0.07s WALL (    4085 calls)
     cegterg      :      5.99s CPU      6.24s WALL (    1720 calls)

     Called by *egterg:
     cdiaghg      :      0.82s CPU      0.85s WALL (    6531 calls)
     h_psi        :      4.55s CPU      4.76s WALL (    6746 calls)
     s_psi        :      0.09s CPU      0.09s WALL (    6746 calls)
     g_psi        :      0.02s CPU      0.02s WALL (    4811 calls)

     Called by h_psi:
     h_psi:calbec :      0.30s CPU      0.31s WALL (    6746 calls)
     vloc_psi     :      4.13s CPU      4.32s WALL (    6746 calls)
     add_vuspsi   :      0.09s CPU      0.10s WALL (    6746 calls)

     General routines
     calbec       :      0.44s CPU      0.46s WALL (    9541 calls)
     fft          :      0.04s CPU      0.11s WALL (     140 calls)
     ffts         :      0.00s CPU      0.01s WALL (      17 calls)
     fftw         :      4.53s CPU      4.73s WALL (  137752 calls)
     interpolate  :      0.00s CPU      0.01s WALL (       9 calls)
 
     Parallel routines
 
     PWSCF        :      8.51s CPU     10.19s WALL

 
   This run was terminated on:   3:35:19  11Jun2026            

=------------------------------------------------------------------------------=
   JOB DONE.
=------------------------------------------------------------------------------=
