
     Program PWSCF v.7.1 starts on 11Jun2026 at  3:47:21 

     This program is part of the open-source Quantum ESPRESSO suite
     for quantum simulation of materials; please cite
         "P. Giannozzi et al., J. Phys.:Condens. Matter 21 395502 (2009);
         "P. Giannozzi et al., J. Phys.:Condens. Matter 29 465901 (2017);
         "P. Giannozzi et al., J. Chem. Phys. 152 154105 (2020);
          URL http://www.quantum-espresso.org", 
     in publications or presentations arising from this work. More details at
     http://www.quantum-espresso.org/quote

     Parallel version (MPI & OpenMP), running on       7 processor cores
     Number of MPI processes:                 7
     Threads/MPI process:                     1

     MPI processes distributed on     7 nodes
     223633 MiB available memory on the printing compute node when the environment starts
 
     Waiting for input...
     Reading input from standard input
Warning: card &CELL ignored
Warning: card / ignored
Warning: card &FCP ignored
Warning: card / ignored
Warning: card &RISM ignored
Warning: card / ignored

     Current dimensions of program PWSCF are:
     Max number of different atomic species (ntypx) = 10
     Max number of k-points (npk) =  40000
     Max angular momentum in pseudopotentials (lmaxx) =  4

     IMPORTANT: XC functional enforced from input :
     Exchange-correlation= VDW-DF2-B86R
                           (   1   4  26   0   2   0   0)
     Any further DFT definition will be discarded
     Please, verify this is what you really want

     Message from routine setup:
     using ibrav=0 with symmetry is DISCOURAGED, use correct ibrav instead
 
     R & G space division:  proc/nbgrp/npool/nimage =       7
     Subspace diagonalization in iterative solution of the eigenvalue problem:
     a serial algorithm will be used

 
     Parallelization info
     --------------------
     sticks:   dense  smooth     PW     G-vecs:    dense   smooth      PW
     Min          85      34     11                 4951     1246     236
     Max          85      35     13                 4959     1253     241
     Sum         595     241     85                34677     8743    1663
 
     Using Slab Decomposition
 


     bravais-lattice index     =            0
     lattice parameter (alat)  =       4.6633  a.u.
     unit-cell volume          =     256.2427 (a.u.)^3
     number of atoms/cell      =            4
     number of atomic types    =            1
     number of electrons       =        16.00
     number of Kohn-Sham states=           12
     kinetic-energy cutoff     =      40.0000  Ry
     charge density cutoff     =     400.0000  Ry
     scf convergence threshold =      1.0E-08
     mixing beta               =       0.3000
     number of iterations used =            8  plain     mixing
     Exchange-correlation= VDW-DF2-B86R
                           (   1   4  26   0   2   0   0)

     celldm(1)=   4.663315  celldm(2)=   0.000000  celldm(3)=   0.000000
     celldm(4)=   0.000000  celldm(5)=   0.000000  celldm(6)=   0.000000

     crystal axes: (cart. coord. in units of alat)
               a(1) = (   1.000000   0.000000   0.000000 )  
               a(2) = (  -0.500000   0.866025   0.000000 )  
               a(3) = (   0.000000   0.000000   2.917673 )  

     reciprocal axes: (cart. coord. in units 2 pi/alat)
               b(1) = (  1.000000  0.577350  0.000000 )  
               b(2) = (  0.000000  1.154701  0.000000 )  
               b(3) = (  0.000000  0.000000  0.342739 )  


     PseudoPot. # 1 for C  read from file:
     /home/k0750/k075000/PSPOT/c_pbe_v1.2.uspp.F.UPF
     MD5 check sum: d1aef80898a10debaa0f26306b886e00
     Pseudo is Ultrasoft + core correction, Zval =  4.0
     Generated by new atomic code, or converted to UPF format
     Using radial grid of  721 points,  4 beta functions with: 
                l(1) =   0
                l(2) =   0
                l(3) =   1
                l(4) =   1
     Q(r) pseudized with  8 coefficients,  rinner =    1.100   1.100   1.100


     atomic species   valence    mass     pseudopotential
        C              4.00    12.01100     C ( 1.00)

      8 Sym. Ops., with inversion, found ( 4 have fractional translation)



   Cartesian axes

     site n.     atom                  positions (alat units)
         1           C   tau(   1) = (   0.0000000   0.0000000   2.1882547  )
         2           C   tau(   2) = (   0.0000000   0.0000000   0.7294182  )
         3           C   tau(   3) = (  -0.0000050   0.5773532   2.1882547  )
         4           C   tau(   4) = (   0.5000050   0.2886722   0.7294182  )

     number of k points=   215  Marzari-Vanderbilt smearing, width (Ry)=  0.0100

     Number of k-points >= 100: set verbosity='high' to print them.

     Dense  grid:    34677 G-vectors     FFT dimensions: (  30,  30,  90)

     Smooth grid:     8743 G-vectors     FFT dimensions: (  20,  20,  60)

     Estimated max dynamical RAM per process >      13.59 MB

     Estimated total dynamical RAM >      95.15 MB

     Initial potential from superposition of free atoms

     starting charge      15.9998, renormalised to      16.0000


     %%%%%%%%%%%%%%%%%%%%%%%%%%%%%%%%%%%%%%%%%%%%%%%%%%%%%%%%%%%%%%%%%%%%%%%%
     %                                                                      %
     % You are using vdW-DF, which was implemented by the Thonhauser group. %
     % Please cite the following two papers that made this development      %
     % possible and the two reviews that describe the various versions:     %
     %                                                                      %
     %   T. Thonhauser et al., PRL 115, 136402 (2015).                      %
     %   T. Thonhauser et al., PRB 76, 125112 (2007).                       %
     %   K. Berland et al., Rep. Prog. Phys. 78, 066501 (2015).             %
     %   D.C. Langreth et al., J. Phys.: Condens. Matter 21, 084203 (2009). %
     %                                                                      %
     % If you are calculating stress with vdW-DF, please also cite:         %
     %                                                                      %
     %   R. Sabatini et al., J. Phys.: Condens. Matter 24, 424209 (2012).   %
     %                                                                      %
     %%%%%%%%%%%%%%%%%%%%%%%%%%%%%%%%%%%%%%%%%%%%%%%%%%%%%%%%%%%%%%%%%%%%%%%%

     %%%%%%%%%%%%%%%%%%%%%%%%%%%%%%%%%%%%%%%%%%%%%%%%%%%%%%%%%%%%%%%%%%%%%%%%
     %                                                                      %
     %  vdW-DF NEWS:                                                        %
     %                                                                      %
     %  * vdW-DF3 is now available. DOI: 10.1021/acs.jctc.0c00471           %
     %    use with input_dft = 'vdW-DF3-opt1' or 'vdW-DF3-opt2'             %
     %                                                                      %
     %  * Unscreened and range-separated vdW-DF hybrid functionals          %
     %    DOI: 10.1063/1.4986522 and 10.1088/1361-648X/ac2ad2               %
     %    use with input_dft = 'vdW-DF-cx0' (etc) and 'vdW-DF-ahcx'         %
     %                                                                      %
     %%%%%%%%%%%%%%%%%%%%%%%%%%%%%%%%%%%%%%%%%%%%%%%%%%%%%%%%%%%%%%%%%%%%%%%%


     Starting wfcs are   16 randomized atomic wfcs

     total cpu time spent up to now is       13.4 secs

     Self-consistent Calculation

     iteration #  1     ecut=    40.00 Ry     beta= 0.30
     Davidson diagonalization with overlap
     ethr =  1.00E-02,  avg # of iterations =  2.8

     total cpu time spent up to now is       14.8 secs

     total energy              =     -46.04607681 Ry
     estimated scf accuracy    <       0.37026801 Ry

     iteration #  2     ecut=    40.00 Ry     beta= 0.30
     Davidson diagonalization with overlap
     ethr =  2.31E-03,  avg # of iterations =  1.3

     total cpu time spent up to now is       15.8 secs

     total energy              =     -45.97908990 Ry
     estimated scf accuracy    <       0.13255080 Ry

     iteration #  3     ecut=    40.00 Ry     beta= 0.30
     Davidson diagonalization with overlap
     ethr =  8.28E-04,  avg # of iterations =  4.0

     total cpu time spent up to now is       17.1 secs

     total energy              =     -46.00306123 Ry
     estimated scf accuracy    <       0.00340240 Ry

     iteration #  4     ecut=    40.00 Ry     beta= 0.30
     Davidson diagonalization with overlap
     ethr =  2.13E-05,  avg # of iterations =  5.1

     total cpu time spent up to now is       18.5 secs

     total energy              =     -46.00139622 Ry
     estimated scf accuracy    <       0.00642874 Ry

     iteration #  5     ecut=    40.00 Ry     beta= 0.30
     Davidson diagonalization with overlap
     ethr =  2.13E-05,  avg # of iterations =  3.0

     total cpu time spent up to now is       19.8 secs

     total energy              =     -46.00249287 Ry
     estimated scf accuracy    <       0.00001394 Ry

     iteration #  6     ecut=    40.00 Ry     beta= 0.30
     Davidson diagonalization with overlap
     c_bands:  1 eigenvalues not converged
     ethr =  8.72E-08,  avg # of iterations =  4.4

     total cpu time spent up to now is       21.1 secs

     total energy              =     -46.00249700 Ry
     estimated scf accuracy    <       0.00000076 Ry

     iteration #  7     ecut=    40.00 Ry     beta= 0.30
     Davidson diagonalization with overlap
     ethr =  4.75E-09,  avg # of iterations =  2.1

     total cpu time spent up to now is       22.1 secs

     total energy              =     -46.00249727 Ry
     estimated scf accuracy    <       0.00000023 Ry

     iteration #  8     ecut=    40.00 Ry     beta= 0.30
     Davidson diagonalization with overlap
     ethr =  1.41E-09,  avg # of iterations =  1.3

     total cpu time spent up to now is       22.9 secs

     total energy              =     -46.00249741 Ry
     estimated scf accuracy    <       0.00000004 Ry

     iteration #  9     ecut=    40.00 Ry     beta= 0.30
     Davidson diagonalization with overlap
     ethr =  2.57E-10,  avg # of iterations =  1.1

     total cpu time spent up to now is       23.8 secs

     total energy              =     -46.00249746 Ry
     estimated scf accuracy    <       0.00000002 Ry

     iteration # 10     ecut=    40.00 Ry     beta= 0.30
     Davidson diagonalization with overlap
     ethr =  1.55E-10,  avg # of iterations =  2.0

     total cpu time spent up to now is       24.7 secs

     End of self-consistent calculation

     Number of k-points >= 100: set verbosity='high' to print the bands.

     the Fermi energy is     6.1623 ev

!    total energy              =     -46.00249752 Ry
     estimated scf accuracy    <          1.9E-09 Ry
     smearing contrib. (-TS)   =      -0.00009009 Ry
     internal energy E=F+TS    =     -46.00240743 Ry

     The total energy is F=E-TS. E is the sum of the following terms:
     one-electron contribution =     -16.61915811 Ry
     hartree contribution      =      15.75315633 Ry
     xc contribution           =     -14.56355560 Ry
     ewald contribution        =     -30.57285005 Ry

     convergence has been achieved in  10 iterations

     Forces acting on atoms (cartesian axes, Ry/au):

     atom    1 type  1   force =    -0.00002398    0.00001384    0.00000000
     atom    2 type  1   force =     0.00002398   -0.00001384    0.00000000
     atom    3 type  1   force =     0.00002400   -0.00001386    0.00000000
     atom    4 type  1   force =    -0.00002400    0.00001386    0.00000000

     Total force =     0.000055     Total SCF correction =     0.000000


     Computing stress (Cartesian axis) and pressure

          total   stress  (Ry/bohr**3)                   (kbar)     P=      -13.72
  -0.00006125  -0.00000006   0.00000000           -9.01       -0.01        0.00
  -0.00000006  -0.00006131   0.00000000           -0.01       -9.02        0.00
   0.00000000   0.00000000  -0.00015723            0.00        0.00      -23.13


     Writing all to output data dir ./tmp/graphite_d_3p60000.save/
 
     init_run     :     13.17s CPU     13.36s WALL (       1 calls)
     electrons    :     10.44s CPU     11.32s WALL (       1 calls)
     forces       :      0.12s CPU      0.12s WALL (       1 calls)
     stress       :      0.25s CPU      0.29s WALL (       1 calls)

     Called by init_run:
     wfcinit      :      0.41s CPU      0.46s WALL (       1 calls)
     potinit      :     12.70s CPU     12.82s WALL (       1 calls)
     hinit0       :      0.03s CPU      0.06s WALL (       1 calls)

     Called by electrons:
     c_bands      :      8.69s CPU      9.25s WALL (      10 calls)
     sum_band     :      1.44s CPU      1.50s WALL (      10 calls)
     v_of_rho     :     12.96s CPU     13.33s WALL (      11 calls)
     newd         :      0.03s CPU      0.03s WALL (      11 calls)
     mix_rho      :      0.01s CPU      0.01s WALL (      10 calls)
     vdW_kernel   :     12.67s CPU     12.70s WALL (       1 calls)

     Called by c_bands:
     init_us_2    :      0.10s CPU      0.11s WALL (    4945 calls)
     init_us_2:cp :      0.10s CPU      0.10s WALL (    4945 calls)
     cegterg      :      8.25s CPU      8.58s WALL (    2150 calls)

     Called by *egterg:
     cdiaghg      :      0.99s CPU      1.05s WALL (    7967 calls)
     h_psi        :      6.48s CPU      6.75s WALL (    8182 calls)
     s_psi        :      0.12s CPU      0.13s WALL (    8182 calls)
     g_psi        :      0.03s CPU      0.03s WALL (    5817 calls)

     Called by h_psi:
     h_psi:calbec :      0.38s CPU      0.40s WALL (    8182 calls)
     vloc_psi     :      5.92s CPU      6.18s WALL (    8182 calls)
     add_vuspsi   :      0.13s CPU      0.13s WALL (    8182 calls)

     General routines
     calbec       :      0.55s CPU      0.57s WALL (   11407 calls)
     fft          :      0.27s CPU      0.67s WALL (     860 calls)
     ffts         :      0.03s CPU      0.03s WALL (      21 calls)
     fftw         :      6.56s CPU      6.83s WALL (  166200 calls)
     interpolate  :      0.00s CPU      0.01s WALL (      11 calls)
 
     Parallel routines
 
     PWSCF        :     24.52s CPU     26.14s WALL

 
   This run was terminated on:   3:47:47  11Jun2026            

=------------------------------------------------------------------------------=
   JOB DONE.
=------------------------------------------------------------------------------=
