
     Program PWSCF v.7.1 starts on 11Jun2026 at  3:51:16 

     This program is part of the open-source Quantum ESPRESSO suite
     for quantum simulation of materials; please cite
         "P. Giannozzi et al., J. Phys.:Condens. Matter 21 395502 (2009);
         "P. Giannozzi et al., J. Phys.:Condens. Matter 29 465901 (2017);
         "P. Giannozzi et al., J. Chem. Phys. 152 154105 (2020);
          URL http://www.quantum-espresso.org", 
     in publications or presentations arising from this work. More details at
     http://www.quantum-espresso.org/quote

     Parallel version (MPI & OpenMP), running on       7 processor cores
     Number of MPI processes:                 7
     Threads/MPI process:                     1

     MPI processes distributed on     7 nodes
     223152 MiB available memory on the printing compute node when the environment starts
 
     Waiting for input...
     Reading input from standard input
Warning: card &CELL ignored
Warning: card / ignored
Warning: card &FCP ignored
Warning: card / ignored
Warning: card &RISM ignored
Warning: card / ignored

     Current dimensions of program PWSCF are:
     Max number of different atomic species (ntypx) = 10
     Max number of k-points (npk) =  40000
     Max angular momentum in pseudopotentials (lmaxx) =  4

     IMPORTANT: XC functional enforced from input :
     Exchange-correlation= VDW-DF2-B86R
                           (   1   4  26   0   2   0   0)
     Any further DFT definition will be discarded
     Please, verify this is what you really want

     Message from routine setup:
     using ibrav=0 with symmetry is DISCOURAGED, use correct ibrav instead
 
     R & G space division:  proc/nbgrp/npool/nimage =       7
     Subspace diagonalization in iterative solution of the eigenvalue problem:
     a serial algorithm will be used

 
     Parallelization info
     --------------------
     sticks:   dense  smooth     PW     G-vecs:    dense   smooth      PW
     Min          85      34     12                 8239     2082     394
     Max          85      35     13                 8255     2097     403
     Sum         595     241     85                57703    14623    2789
 
     Using Slab Decomposition
 


     bravais-lattice index     =            0
     lattice parameter (alat)  =       4.6633  a.u.
     unit-cell volume          =     427.0712 (a.u.)^3
     number of atoms/cell      =            4
     number of atomic types    =            1
     number of electrons       =        16.00
     number of Kohn-Sham states=           12
     kinetic-energy cutoff     =      40.0000  Ry
     charge density cutoff     =     400.0000  Ry
     scf convergence threshold =      1.0E-08
     mixing beta               =       0.3000
     number of iterations used =            8  plain     mixing
     Exchange-correlation= VDW-DF2-B86R
                           (   1   4  26   0   2   0   0)

     celldm(1)=   4.663315  celldm(2)=   0.000000  celldm(3)=   0.000000
     celldm(4)=   0.000000  celldm(5)=   0.000000  celldm(6)=   0.000000

     crystal axes: (cart. coord. in units of alat)
               a(1) = (   1.000000   0.000000   0.000000 )  
               a(2) = (  -0.500000   0.866025   0.000000 )  
               a(3) = (   0.000000   0.000000   4.862788 )  

     reciprocal axes: (cart. coord. in units 2 pi/alat)
               b(1) = (  1.000000  0.577350  0.000000 )  
               b(2) = (  0.000000  1.154701  0.000000 )  
               b(3) = (  0.000000  0.000000  0.205643 )  


     PseudoPot. # 1 for C  read from file:
     /home/k0750/k075000/PSPOT/c_pbe_v1.2.uspp.F.UPF
     MD5 check sum: d1aef80898a10debaa0f26306b886e00
     Pseudo is Ultrasoft + core correction, Zval =  4.0
     Generated by new atomic code, or converted to UPF format
     Using radial grid of  721 points,  4 beta functions with: 
                l(1) =   0
                l(2) =   0
                l(3) =   1
                l(4) =   1
     Q(r) pseudized with  8 coefficients,  rinner =    1.100   1.100   1.100


     atomic species   valence    mass     pseudopotential
        C              4.00    12.01100     C ( 1.00)

      8 Sym. Ops., with inversion, found ( 4 have fractional translation)



   Cartesian axes

     site n.     atom                  positions (alat units)
         1           C   tau(   1) = (   0.0000000   0.0000000   3.6470912  )
         2           C   tau(   2) = (   0.0000000   0.0000000   1.2156971  )
         3           C   tau(   3) = (  -0.0000050   0.5773532   3.6470912  )
         4           C   tau(   4) = (   0.5000050   0.2886722   1.2156971  )

     number of k points=   215  Marzari-Vanderbilt smearing, width (Ry)=  0.0100

     Number of k-points >= 100: set verbosity='high' to print them.

     Dense  grid:    57703 G-vectors     FFT dimensions: (  30,  30, 150)

     Smooth grid:    14623 G-vectors     FFT dimensions: (  20,  20,  96)

     Estimated max dynamical RAM per process >      22.36 MB

     Estimated total dynamical RAM >     156.49 MB

     Initial potential from superposition of free atoms

     starting charge      15.9998, renormalised to      16.0000


     %%%%%%%%%%%%%%%%%%%%%%%%%%%%%%%%%%%%%%%%%%%%%%%%%%%%%%%%%%%%%%%%%%%%%%%%
     %                                                                      %
     % You are using vdW-DF, which was implemented by the Thonhauser group. %
     % Please cite the following two papers that made this development      %
     % possible and the two reviews that describe the various versions:     %
     %                                                                      %
     %   T. Thonhauser et al., PRL 115, 136402 (2015).                      %
     %   T. Thonhauser et al., PRB 76, 125112 (2007).                       %
     %   K. Berland et al., Rep. Prog. Phys. 78, 066501 (2015).             %
     %   D.C. Langreth et al., J. Phys.: Condens. Matter 21, 084203 (2009). %
     %                                                                      %
     % If you are calculating stress with vdW-DF, please also cite:         %
     %                                                                      %
     %   R. Sabatini et al., J. Phys.: Condens. Matter 24, 424209 (2012).   %
     %                                                                      %
     %%%%%%%%%%%%%%%%%%%%%%%%%%%%%%%%%%%%%%%%%%%%%%%%%%%%%%%%%%%%%%%%%%%%%%%%

     %%%%%%%%%%%%%%%%%%%%%%%%%%%%%%%%%%%%%%%%%%%%%%%%%%%%%%%%%%%%%%%%%%%%%%%%
     %                                                                      %
     %  vdW-DF NEWS:                                                        %
     %                                                                      %
     %  * vdW-DF3 is now available. DOI: 10.1021/acs.jctc.0c00471           %
     %    use with input_dft = 'vdW-DF3-opt1' or 'vdW-DF3-opt2'             %
     %                                                                      %
     %  * Unscreened and range-separated vdW-DF hybrid functionals          %
     %    DOI: 10.1063/1.4986522 and 10.1088/1361-648X/ac2ad2               %
     %    use with input_dft = 'vdW-DF-cx0' (etc) and 'vdW-DF-ahcx'         %
     %                                                                      %
     %%%%%%%%%%%%%%%%%%%%%%%%%%%%%%%%%%%%%%%%%%%%%%%%%%%%%%%%%%%%%%%%%%%%%%%%


     Starting wfcs are   16 randomized atomic wfcs

     total cpu time spent up to now is       13.7 secs

     Self-consistent Calculation

     iteration #  1     ecut=    40.00 Ry     beta= 0.30
     Davidson diagonalization with overlap
     ethr =  1.00E-02,  avg # of iterations =  2.8

     total cpu time spent up to now is       15.5 secs

     total energy              =     -46.03404477 Ry
     estimated scf accuracy    <       0.38443921 Ry

     iteration #  2     ecut=    40.00 Ry     beta= 0.30
     Davidson diagonalization with overlap
     ethr =  2.40E-03,  avg # of iterations =  2.0

     total cpu time spent up to now is       17.1 secs

     total energy              =     -45.96183968 Ry
     estimated scf accuracy    <       0.13832032 Ry

     iteration #  3     ecut=    40.00 Ry     beta= 0.30
     Davidson diagonalization with overlap
     ethr =  8.65E-04,  avg # of iterations =  4.4

     total cpu time spent up to now is       19.1 secs

     total energy              =     -45.98924518 Ry
     estimated scf accuracy    <       0.00417026 Ry

     iteration #  4     ecut=    40.00 Ry     beta= 0.30
     Davidson diagonalization with overlap
     ethr =  2.61E-05,  avg # of iterations =  6.5

     total cpu time spent up to now is       21.3 secs

     total energy              =     -45.98574969 Ry
     estimated scf accuracy    <       0.01214992 Ry

     iteration #  5     ecut=    40.00 Ry     beta= 0.30
     Davidson diagonalization with overlap
     ethr =  2.61E-05,  avg # of iterations =  3.5

     total cpu time spent up to now is       23.1 secs

     total energy              =     -45.98780083 Ry
     estimated scf accuracy    <       0.00000332 Ry

     iteration #  6     ecut=    40.00 Ry     beta= 0.30
     Davidson diagonalization with overlap
     ethr =  2.08E-08,  avg # of iterations =  4.9

     total cpu time spent up to now is       25.1 secs

     total energy              =     -45.98780736 Ry
     estimated scf accuracy    <       0.00000111 Ry

     iteration #  7     ecut=    40.00 Ry     beta= 0.30
     Davidson diagonalization with overlap
     ethr =  6.91E-09,  avg # of iterations =  2.0

     total cpu time spent up to now is       26.6 secs

     total energy              =     -45.98780798 Ry
     estimated scf accuracy    <       0.00000039 Ry

     iteration #  8     ecut=    40.00 Ry     beta= 0.30
     Davidson diagonalization with overlap
     ethr =  2.41E-09,  avg # of iterations =  1.1

     total cpu time spent up to now is       27.8 secs

     total energy              =     -45.98780820 Ry
     estimated scf accuracy    <       0.00000010 Ry

     iteration #  9     ecut=    40.00 Ry     beta= 0.30
     Davidson diagonalization with overlap
     ethr =  6.38E-10,  avg # of iterations =  2.0

     total cpu time spent up to now is       29.2 secs

     End of self-consistent calculation

     Number of k-points >= 100: set verbosity='high' to print the bands.

     the Fermi energy is     1.9786 ev

!    total energy              =     -45.98780838 Ry
     estimated scf accuracy    <          2.5E-10 Ry
     smearing contrib. (-TS)   =      -0.00018210 Ry
     internal energy E=F+TS    =     -45.98762628 Ry

     The total energy is F=E-TS. E is the sum of the following terms:
     one-electron contribution =     -76.21893759 Ry
     hartree contribution      =      43.06885781 Ry
     xc contribution           =     -14.54536722 Ry
     ewald contribution        =       1.70782072 Ry

     convergence has been achieved in   9 iterations

     Forces acting on atoms (cartesian axes, Ry/au):

     atom    1 type  1   force =    -0.00002009    0.00001160    0.00000000
     atom    2 type  1   force =     0.00002009   -0.00001160    0.00000000
     atom    3 type  1   force =     0.00002007   -0.00001159    0.00000000
     atom    4 type  1   force =    -0.00002007    0.00001159    0.00000000

     Total force =     0.000046     Total SCF correction =     0.000000


     Computing stress (Cartesian axis) and pressure

          total   stress  (Ry/bohr**3)                   (kbar)     P=       -6.50
  -0.00004912   0.00000000   0.00000000           -7.23        0.00        0.00
   0.00000000  -0.00004912   0.00000000            0.00       -7.23        0.00
   0.00000000   0.00000000  -0.00003434            0.00        0.00       -5.05


     Writing all to output data dir ./tmp/graphite_d_6p00000.save/
 
     init_run     :     13.43s CPU     13.66s WALL (       1 calls)
     electrons    :     14.49s CPU     15.53s WALL (       1 calls)
     forces       :      0.17s CPU      0.17s WALL (       1 calls)
     stress       :      0.40s CPU      0.47s WALL (       1 calls)

     Called by init_run:
     wfcinit      :      0.61s CPU      0.66s WALL (       1 calls)
     potinit      :     12.73s CPU     12.85s WALL (       1 calls)
     hinit0       :      0.04s CPU      0.07s WALL (       1 calls)

     Called by electrons:
     c_bands      :     12.04s CPU     12.66s WALL (       9 calls)
     sum_band     :      1.92s CPU      1.99s WALL (       9 calls)
     v_of_rho     :     13.19s CPU     13.63s WALL (      10 calls)
     newd         :      0.04s CPU      0.05s WALL (      10 calls)
     mix_rho      :      0.01s CPU      0.01s WALL (       9 calls)
     vdW_kernel   :     12.67s CPU     12.70s WALL (       1 calls)

     Called by c_bands:
     init_us_2    :      0.15s CPU      0.15s WALL (    4515 calls)
     init_us_2:cp :      0.14s CPU      0.15s WALL (    4515 calls)
     cegterg      :     11.47s CPU     11.87s WALL (    1935 calls)

     Called by *egterg:
     cdiaghg      :      1.04s CPU      1.07s WALL (    8212 calls)
     h_psi        :      9.31s CPU      9.70s WALL (    8427 calls)
     s_psi        :      0.18s CPU      0.19s WALL (    8427 calls)
     g_psi        :      0.04s CPU      0.05s WALL (    6277 calls)

     Called by h_psi:
     h_psi:calbec :      0.47s CPU      0.49s WALL (    8427 calls)
     vloc_psi     :      8.60s CPU      8.97s WALL (    8427 calls)
     add_vuspsi   :      0.19s CPU      0.20s WALL (    8427 calls)

     General routines
     calbec       :      0.68s CPU      0.70s WALL (   11437 calls)
     fft          :      0.49s CPU      1.00s WALL (     797 calls)
     ffts         :      0.04s CPU      0.05s WALL (      19 calls)
     fftw         :      9.42s CPU      9.81s WALL (  162060 calls)
     interpolate  :      0.00s CPU      0.01s WALL (      10 calls)
 
     Parallel routines
 
     PWSCF        :     29.05s CPU     30.98s WALL

 
   This run was terminated on:   3:51:47  11Jun2026            

=------------------------------------------------------------------------------=
   JOB DONE.
=------------------------------------------------------------------------------=
