
     Program PWSCF v.7.1 starts on  4Jun2026 at 12:28:34 

     This program is part of the open-source Quantum ESPRESSO suite
     for quantum simulation of materials; please cite
         "P. Giannozzi et al., J. Phys.:Condens. Matter 21 395502 (2009);
         "P. Giannozzi et al., J. Phys.:Condens. Matter 29 465901 (2017);
         "P. Giannozzi et al., J. Chem. Phys. 152 154105 (2020);
          URL http://www.quantum-espresso.org", 
     in publications or presentations arising from this work. More details at
     http://www.quantum-espresso.org/quote

     Parallel version (MPI & OpenMP), running on     490 processor cores
     Number of MPI processes:               490
     Threads/MPI process:                     1

     MPI processes distributed on     7 nodes
     218941 MiB available memory on the printing compute node when the environment starts
 
     Waiting for input...
     Reading input from standard input
Warning: card / ignored

     Current dimensions of program PWSCF are:
     Max number of different atomic species (ntypx) = 10
     Max number of k-points (npk) =  40000
     Max angular momentum in pseudopotentials (lmaxx) =  4
     Message from routine setup:
     using ibrav=0 with symmetry is DISCOURAGED, use correct ibrav instead
 
     K-points division:     npool     =      70
     R & G space division:  proc/nbgrp/npool/nimage =       7
     Subspace diagonalization in iterative solution of the eigenvalue problem:
     a serial algorithm will be used

     Message from routine divide_et_impera:
     suboptimal parallelization: some nodes have no k-points
 
     Parallelization info
     --------------------
     sticks:   dense  smooth     PW     G-vecs:    dense   smooth      PW
     Min         441     175     51                18417     4647     751
     Max         443     177     53                18418     4648     751
     Sum        3093    1229    365               128923    32531    5257
 
     Using Slab Decomposition
 


     bravais-lattice index     =            0
     lattice parameter (alat)  =       7.4411  a.u.
     unit-cell volume          =     412.0202 (a.u.)^3
     number of atoms/cell      =            5
     number of atomic types    =            3
     number of electrons       =        40.00
     number of Kohn-Sham states=           20
     kinetic-energy cutoff     =      70.0000  Ry
     charge density cutoff     =     700.0000  Ry
     scf convergence threshold =      1.0E-08
     mixing beta               =       0.7000
     number of iterations used =            8  plain     mixing
     energy convergence thresh.=      1.0E-04
     force convergence thresh. =      1.0E-03
     press convergence thresh. =      5.0E-01
     Exchange-correlation= SLA  PW   PBE  PBE
                           (   1   4   3   4   0   0   0)
     nstep                     =           50


     celldm(1)=   7.441140  celldm(2)=   0.000000  celldm(3)=   0.000000
     celldm(4)=   0.000000  celldm(5)=   0.000000  celldm(6)=   0.000000

     crystal axes: (cart. coord. in units of alat)
               a(1) = (   1.000000   0.000000   0.000000 )  
               a(2) = (   0.000000   1.000000   0.000000 )  
               a(3) = (   0.000000   0.000000   1.000000 )  

     reciprocal axes: (cart. coord. in units 2 pi/alat)
               b(1) = (  1.000000  0.000000  0.000000 )  
               b(2) = (  0.000000  1.000000  0.000000 )  
               b(3) = (  0.000000  0.000000  1.000000 )  


     PseudoPot. # 1 for Sr read from file:
     /home/k0750/k075000/PSPOT/sr_pbe_v1.uspp.F.UPF
     MD5 check sum: 6b418c05fbe9db5448babca5e47b7a5b
     Pseudo is Ultrasoft + core correction, Zval = 10.0
     Generated by new atomic code, or converted to UPF format
     Using radial grid of  883 points,  6 beta functions with: 
                l(1) =   0
                l(2) =   0
                l(3) =   1
                l(4) =   1
                l(5) =   2
                l(6) =   2
     Q(r) pseudized with  6 coefficients,  rinner =    1.400   1.400   1.400
                                                       1.400   1.400

     PseudoPot. # 2 for Ti read from file:
     /home/k0750/k075000/PSPOT/ti_pbe_v1.4.uspp.F.UPF
     MD5 check sum: 88a00a6731bd790ddea75d31a80cb452
     Pseudo is Ultrasoft + core correction, Zval = 12.0
     Generated by new atomic code, or converted to UPF format
     Using radial grid of  851 points,  6 beta functions with: 
                l(1) =   0
                l(2) =   0
                l(3) =   1
                l(4) =   1
                l(5) =   2
                l(6) =   2
     Q(r) pseudized with  6 coefficients,  rinner =    1.000   1.000   1.000
                                                       1.000   1.000

     PseudoPot. # 3 for O  read from file:
     /home/k0750/k075000/PSPOT/o_pbe_v1.2.uspp.F.UPF
     MD5 check sum: 734c27235a0248c51dbae37a1fbe46ec
     Pseudo is Ultrasoft + core correction, Zval =  6.0
     Generated by new atomic code, or converted to UPF format
     Using radial grid of  737 points,  5 beta functions with: 
                l(1) =   0
                l(2) =   0
                l(3) =   1
                l(4) =   1
                l(5) =   2
     Q(r) pseudized with  8 coefficients,  rinner =    0.900   0.900   0.900
                                                       0.900   0.900

     atomic species   valence    mass     pseudopotential
        Sr            10.00    87.62000     Sr( 1.00)
        Ti            12.00    47.86700     Ti( 1.00)
        O              6.00    15.99900     O ( 1.00)

     48 Sym. Ops., with inversion, found



   Cartesian axes

     site n.     atom                  positions (alat units)
         1           Sr  tau(   1) = (   0.0000000   0.0000000   0.0000000  )
         2           Ti  tau(   2) = (   0.5000000   0.5000000   0.5000000  )
         3           O   tau(   3) = (   0.5000000   0.5000000   0.0000000  )
         4           O   tau(   4) = (   0.5000000   0.0000000   0.5000000  )
         5           O   tau(   5) = (   0.0000000   0.5000000   0.5000000  )

     number of k points=    56
                       cart. coord. in units 2pi/alat
        k(    1) = (   0.0000000   0.0000000   0.0000000), wk =   0.0020000
        k(    2) = (   0.0000000   0.0000000   0.1000000), wk =   0.0120000
        k(    3) = (   0.0000000   0.0000000   0.2000000), wk =   0.0120000
        k(    4) = (   0.0000000   0.0000000   0.3000000), wk =   0.0120000
        k(    5) = (   0.0000000   0.0000000   0.4000000), wk =   0.0120000
        k(    6) = (   0.0000000   0.0000000  -0.5000000), wk =   0.0060000
        k(    7) = (   0.0000000   0.1000000   0.1000000), wk =   0.0240000
        k(    8) = (   0.0000000   0.1000000   0.2000000), wk =   0.0480000
        k(    9) = (   0.0000000   0.1000000   0.3000000), wk =   0.0480000
        k(   10) = (   0.0000000   0.1000000   0.4000000), wk =   0.0480000
        k(   11) = (   0.0000000   0.1000000  -0.5000000), wk =   0.0240000
        k(   12) = (   0.0000000   0.2000000   0.2000000), wk =   0.0240000
        k(   13) = (   0.0000000   0.2000000   0.3000000), wk =   0.0480000
        k(   14) = (   0.0000000   0.2000000   0.4000000), wk =   0.0480000
        k(   15) = (   0.0000000   0.2000000  -0.5000000), wk =   0.0240000
        k(   16) = (   0.0000000   0.3000000   0.3000000), wk =   0.0240000
        k(   17) = (   0.0000000   0.3000000   0.4000000), wk =   0.0480000
        k(   18) = (   0.0000000   0.3000000  -0.5000000), wk =   0.0240000
        k(   19) = (   0.0000000   0.4000000   0.4000000), wk =   0.0240000
        k(   20) = (   0.0000000   0.4000000  -0.5000000), wk =   0.0240000
        k(   21) = (   0.0000000  -0.5000000  -0.5000000), wk =   0.0060000
        k(   22) = (   0.1000000   0.1000000   0.1000000), wk =   0.0160000
        k(   23) = (   0.1000000   0.1000000   0.2000000), wk =   0.0480000
        k(   24) = (   0.1000000   0.1000000   0.3000000), wk =   0.0480000
        k(   25) = (   0.1000000   0.1000000   0.4000000), wk =   0.0480000
        k(   26) = (   0.1000000   0.1000000  -0.5000000), wk =   0.0240000
        k(   27) = (   0.1000000   0.2000000   0.2000000), wk =   0.0480000
        k(   28) = (   0.1000000   0.2000000   0.3000000), wk =   0.0960000
        k(   29) = (   0.1000000   0.2000000   0.4000000), wk =   0.0960000
        k(   30) = (   0.1000000   0.2000000  -0.5000000), wk =   0.0480000
        k(   31) = (   0.1000000   0.3000000   0.3000000), wk =   0.0480000
        k(   32) = (   0.1000000   0.3000000   0.4000000), wk =   0.0960000
        k(   33) = (   0.1000000   0.3000000  -0.5000000), wk =   0.0480000
        k(   34) = (   0.1000000   0.4000000   0.4000000), wk =   0.0480000
        k(   35) = (   0.1000000   0.4000000  -0.5000000), wk =   0.0480000
        k(   36) = (   0.1000000  -0.5000000  -0.5000000), wk =   0.0120000
        k(   37) = (   0.2000000   0.2000000   0.2000000), wk =   0.0160000
        k(   38) = (   0.2000000   0.2000000   0.3000000), wk =   0.0480000
        k(   39) = (   0.2000000   0.2000000   0.4000000), wk =   0.0480000
        k(   40) = (   0.2000000   0.2000000  -0.5000000), wk =   0.0240000
        k(   41) = (   0.2000000   0.3000000   0.3000000), wk =   0.0480000
        k(   42) = (   0.2000000   0.3000000   0.4000000), wk =   0.0960000
        k(   43) = (   0.2000000   0.3000000  -0.5000000), wk =   0.0480000
        k(   44) = (   0.2000000   0.4000000   0.4000000), wk =   0.0480000
        k(   45) = (   0.2000000   0.4000000  -0.5000000), wk =   0.0480000
        k(   46) = (   0.2000000  -0.5000000  -0.5000000), wk =   0.0120000
        k(   47) = (   0.3000000   0.3000000   0.3000000), wk =   0.0160000
        k(   48) = (   0.3000000   0.3000000   0.4000000), wk =   0.0480000
        k(   49) = (   0.3000000   0.3000000  -0.5000000), wk =   0.0240000
        k(   50) = (   0.3000000   0.4000000   0.4000000), wk =   0.0480000
        k(   51) = (   0.3000000   0.4000000  -0.5000000), wk =   0.0480000
        k(   52) = (   0.3000000  -0.5000000  -0.5000000), wk =   0.0120000
        k(   53) = (   0.4000000   0.4000000   0.4000000), wk =   0.0160000
        k(   54) = (   0.4000000   0.4000000  -0.5000000), wk =   0.0240000
        k(   55) = (   0.4000000  -0.5000000  -0.5000000), wk =   0.0120000
        k(   56) = (  -0.5000000  -0.5000000  -0.5000000), wk =   0.0020000

     Dense  grid:   128923 G-vectors     FFT dimensions: (  64,  64,  64)

     Smooth grid:    32531 G-vectors     FFT dimensions: (  40,  40,  40)

     Estimated max dynamical RAM per process >      26.23 MB

     Estimated total dynamical RAM >      10.43 GB

     Check: negative core charge=   -0.000002

     Initial potential from superposition of free atoms

     starting charge      38.9663, renormalised to      40.0000

     negative rho (up, down):  6.691E-02 0.000E+00
     Starting wfcs are   35 randomized atomic wfcs

     total cpu time spent up to now is        3.9 secs

     Self-consistent Calculation

     iteration #  1     ecut=    70.00 Ry     beta= 0.70
     Davidson diagonalization with overlap
     ethr =  1.00E-02,  avg # of iterations =  1.6

     negative rho (up, down):  6.579E-02 0.000E+00

     total cpu time spent up to now is        5.0 secs

     total energy              =    -286.49591559 Ry
     estimated scf accuracy    <       1.00086886 Ry

     iteration #  2     ecut=    70.00 Ry     beta= 0.70
     Davidson diagonalization with overlap
     ethr =  2.50E-03,  avg # of iterations =  6.1

     negative rho (up, down):  6.524E-02 0.000E+00

     total cpu time spent up to now is        5.7 secs

     total energy              =    -285.30240035 Ry
     estimated scf accuracy    <      10.87231244 Ry

     iteration #  3     ecut=    70.00 Ry     beta= 0.70
     Davidson diagonalization with overlap
     ethr =  2.50E-03,  avg # of iterations =  5.6

     negative rho (up, down):  6.676E-02 0.000E+00

     total cpu time spent up to now is        6.0 secs

     total energy              =    -286.98501395 Ry
     estimated scf accuracy    <       0.23474215 Ry

     iteration #  4     ecut=    70.00 Ry     beta= 0.70
     Davidson diagonalization with overlap
     ethr =  5.87E-04,  avg # of iterations =  2.0

     negative rho (up, down):  6.754E-02 0.000E+00

     total cpu time spent up to now is        6.2 secs

     total energy              =    -286.98241939 Ry
     estimated scf accuracy    <       0.08843419 Ry

     iteration #  5     ecut=    70.00 Ry     beta= 0.70
     Davidson diagonalization with overlap
     ethr =  2.21E-04,  avg # of iterations =  3.7

     negative rho (up, down):  6.761E-02 0.000E+00

     total cpu time spent up to now is        6.4 secs

     total energy              =    -286.99112012 Ry
     estimated scf accuracy    <       0.00823622 Ry

     iteration #  6     ecut=    70.00 Ry     beta= 0.70
     Davidson diagonalization with overlap
     ethr =  2.06E-05,  avg # of iterations =  4.1

     negative rho (up, down):  6.767E-02 0.000E+00

     total cpu time spent up to now is        6.6 secs

     total energy              =    -287.00104244 Ry
     estimated scf accuracy    <       0.00008958 Ry

     iteration #  7     ecut=    70.00 Ry     beta= 0.70
     Davidson diagonalization with overlap
     ethr =  2.24E-07,  avg # of iterations =  5.5

     negative rho (up, down):  6.767E-02 0.000E+00

     total cpu time spent up to now is        6.9 secs

     total energy              =    -287.01639737 Ry
     estimated scf accuracy    <       0.00035299 Ry

     iteration #  8     ecut=    70.00 Ry     beta= 0.70
     Davidson diagonalization with overlap
     ethr =  2.24E-07,  avg # of iterations =  2.4

     negative rho (up, down):  6.767E-02 0.000E+00

     total cpu time spent up to now is        7.0 secs

     total energy              =    -287.01637613 Ry
     estimated scf accuracy    <       0.00015968 Ry

     iteration #  9     ecut=    70.00 Ry     beta= 0.70
     Davidson diagonalization with overlap
     ethr =  2.24E-07,  avg # of iterations =  3.8

     negative rho (up, down):  6.767E-02 0.000E+00

     total cpu time spent up to now is        7.2 secs

     total energy              =    -287.01638893 Ry
     estimated scf accuracy    <       0.00002034 Ry

     iteration # 10     ecut=    70.00 Ry     beta= 0.70
     Davidson diagonalization with overlap
     ethr =  5.09E-08,  avg # of iterations =  2.9

     negative rho (up, down):  6.767E-02 0.000E+00

     total cpu time spent up to now is        7.3 secs

     total energy              =    -287.01638643 Ry
     estimated scf accuracy    <       0.00000959 Ry

     iteration # 11     ecut=    70.00 Ry     beta= 0.70
     Davidson diagonalization with overlap
     ethr =  2.40E-08,  avg # of iterations =  4.1

     negative rho (up, down):  6.767E-02 0.000E+00

     total cpu time spent up to now is        7.5 secs

     total energy              =    -287.01638947 Ry
     estimated scf accuracy    <       0.00000118 Ry

     iteration # 12     ecut=    70.00 Ry     beta= 0.70
     Davidson diagonalization with overlap
     ethr =  2.94E-09,  avg # of iterations =  1.8

     negative rho (up, down):  6.767E-02 0.000E+00

     total cpu time spent up to now is        7.7 secs

     total energy              =    -287.01638939 Ry
     estimated scf accuracy    <       0.00000077 Ry

     iteration # 13     ecut=    70.00 Ry     beta= 0.70
     Davidson diagonalization with overlap
     ethr =  1.92E-09,  avg # of iterations =  2.1

     negative rho (up, down):  6.767E-02 0.000E+00

     total cpu time spent up to now is        7.8 secs

     total energy              =    -287.01638939 Ry
     estimated scf accuracy    <       0.00000029 Ry

     iteration # 14     ecut=    70.00 Ry     beta= 0.70
     Davidson diagonalization with overlap
     ethr =  7.29E-10,  avg # of iterations =  2.6

     negative rho (up, down):  6.767E-02 0.000E+00

     total cpu time spent up to now is        7.9 secs

     total energy              =    -287.01638941 Ry
     estimated scf accuracy    <       0.00000009 Ry

     iteration # 15     ecut=    70.00 Ry     beta= 0.70
     Davidson diagonalization with overlap
     ethr =  2.23E-10,  avg # of iterations =  1.4

     negative rho (up, down):  6.767E-02 0.000E+00

     total cpu time spent up to now is        8.1 secs

     total energy              =    -287.01638942 Ry
     estimated scf accuracy    <       0.00000008 Ry

     iteration # 16     ecut=    70.00 Ry     beta= 0.70
     Davidson diagonalization with overlap
     ethr =  2.01E-10,  avg # of iterations =  1.0

     negative rho (up, down):  6.767E-02 0.000E+00

     total cpu time spent up to now is        8.2 secs

     total energy              =    -287.01638942 Ry
     estimated scf accuracy    <       0.00000008 Ry

     iteration # 17     ecut=    70.00 Ry     beta= 0.70
     Davidson diagonalization with overlap
     ethr =  1.88E-10,  avg # of iterations =  1.0

     negative rho (up, down):  6.766E-02 0.000E+00

     total cpu time spent up to now is        8.3 secs

     total energy              =    -287.01638943 Ry
     estimated scf accuracy    <       0.00000008 Ry

     iteration # 18     ecut=    70.00 Ry     beta= 0.70
     Davidson diagonalization with overlap
     ethr =  1.88E-10,  avg # of iterations =  2.1

     negative rho (up, down):  6.766E-02 0.000E+00

     total cpu time spent up to now is        8.4 secs

     total energy              =    -287.01638945 Ry
     estimated scf accuracy    <       0.00000013 Ry

     iteration # 19     ecut=    70.00 Ry     beta= 0.70
     Davidson diagonalization with overlap
     ethr =  1.88E-10,  avg # of iterations =  2.4

     negative rho (up, down):  6.766E-02 0.000E+00

     total cpu time spent up to now is        8.5 secs

     total energy              =    -287.01638940 Ry
     estimated scf accuracy    <       0.00000020 Ry

     iteration # 20     ecut=    70.00 Ry     beta= 0.70
     Davidson diagonalization with overlap
     ethr =  1.88E-10,  avg # of iterations =  3.2

     negative rho (up, down):  6.766E-02 0.000E+00

     total cpu time spent up to now is        8.6 secs

     total energy              =    -287.01638939 Ry
     estimated scf accuracy    <       0.00000005 Ry

     iteration # 21     ecut=    70.00 Ry     beta= 0.70
     Davidson diagonalization with overlap
     ethr =  1.14E-10,  avg # of iterations =  4.0

     negative rho (up, down):  6.766E-02 0.000E+00

     total cpu time spent up to now is        8.8 secs

     End of self-consistent calculation

          k = 0.0000 0.0000 0.0000 (  4067 PWs)   bands (ev):

   -46.8013 -23.0871 -23.0487 -23.0487 -23.0487  -7.5805  -6.6120  -6.6120
    -5.0737  -5.0737  -5.0737   6.9155   6.9155   6.9155   8.5793   8.5793
     8.5793   9.3485   9.3485   9.3485

          k = 0.0000 0.0000 0.1000 (  4028 PWs)   bands (ev):

   -46.8012 -23.1050 -23.0484 -23.0484 -23.0346  -7.5824  -6.6208  -6.6085
    -5.0696  -5.0696  -5.0060   6.7872   6.9107   6.9107   8.4508   8.4508
     8.4939   9.0379   9.2820   9.2820

          k = 0.0000 0.0000 0.2000 (  4056 PWs)   bands (ev):

   -46.8010 -23.1353 -23.0477 -23.0477 -23.0144  -7.6119  -6.5994  -6.5970
    -5.0589  -5.0589  -4.8476   6.4435   6.9008   6.9008   8.1383   8.1383
     8.2850   8.3923   9.1670   9.1670

          k = 0.0000 0.0000 0.3000 (  4068 PWs)   bands (ev):

   -46.8007 -23.1640 -23.0469 -23.0469 -22.9979  -7.6836  -6.5881  -6.4979
    -5.0455  -5.0455  -4.6788   5.9986   6.8979   6.8979   7.7934   7.7934
     7.7961   8.0504   9.0703   9.0703

          k = 0.0000 0.0000 0.4000 (  4076 PWs)   bands (ev):

   -46.8005 -23.1846 -23.0462 -23.0462 -22.9872  -7.7569  -6.5788  -6.3798
    -5.0347  -5.0347  -4.5584   5.6230   6.9117   6.9117   7.4163   7.5295
     7.5295   7.8758   9.0072   9.0072

          k = 0.0000 0.0000-0.5000 (  4068 PWs)   bands (ev):

   -46.8004 -23.1920 -23.0460 -23.0460 -22.9835  -7.7866  -6.5753  -6.3281
    -5.0305  -5.0305  -4.5157   5.4766   6.9255   6.9255   7.2886   7.4260
     7.4260   7.8122   8.9853   8.9853

          k = 0.0000 0.1000 0.1000 (  4028 PWs)   bands (ev):

   -46.8011 -23.1137 -23.0543 -23.0482 -23.0236  -7.5775  -6.6313  -6.6068
    -5.0654  -5.0328  -4.9772   6.6993   6.8651   6.9063   8.1705   8.3410
     8.5862   8.9101   9.1005   9.2001

          k = 0.0000 0.1000 0.2000 (  4057 PWs)   bands (ev):

   -46.8009 -23.1357 -23.0566 -23.0475 -23.0090  -7.5891  -6.6296  -6.5863
    -5.0545  -5.0125  -4.8430   6.3955   6.8099   6.8976   7.7534   8.0606
     8.3582   8.5773   8.9649   9.0578

          k = 0.0000 0.1000 0.3000 (  4065 PWs)   bands (ev):

   -46.8006 -23.1606 -23.0549 -23.0467 -22.9973  -7.6431  -6.5920  -6.5252
    -5.0410  -5.0006  -4.6885   5.9776   6.7573   6.8963   7.3089   7.7364
     7.9380   8.4251   8.8614   8.9437

          k = 0.0000 0.1000 0.4000 (  4080 PWs)   bands (ev):

   -46.8004 -23.1795 -23.0528 -23.0460 -22.9899  -7.7063  -6.5708  -6.4263
    -5.0299  -4.9909  -4.5776   5.6145   6.7212   6.9125   6.9776   7.4811
     7.7022   8.2942   8.7919   8.8726

          k = 0.0000 0.1000-0.5000 (  4074 PWs)   bands (ev):

   -46.8003 -23.1864 -23.0519 -23.0457 -22.9873  -7.7331  -6.5639  -6.3804
    -5.0257  -4.9869  -4.5382   5.4709   6.7175   6.8506   6.9282   7.3787
     7.6274   8.2437   8.7673   8.8484

          k = 0.0000 0.2000 0.2000 (  4054 PWs)   bands (ev):

   -46.8007 -23.1400 -23.0691 -23.0468 -23.0020  -7.5480  -6.6770  -6.5544
    -5.0431  -4.9293  -4.8068   6.2171   6.6236   6.8917   7.2523   7.8502
     8.2502   8.5009   8.8524   8.8929

          k = 0.0000 0.2000 0.3000 (  4067 PWs)   bands (ev):

   -46.8004 -23.1520 -23.0726 -23.0460 -22.9986  -7.5405  -6.6639  -6.5174
    -5.0289  -4.8979  -4.7092   5.9010   6.4340   6.8006   6.8937   7.5833
     7.9865   8.4428   8.6844   8.9069

          k = 0.0000 0.2000 0.4000 (  4095 PWs)   bands (ev):

   -46.8002 -23.1652 -23.0695 -23.0454 -22.9982  -7.5668  -6.5950  -6.4976
    -5.0174  -4.8886  -4.6233   5.5871   6.2046   6.6057   6.9147   7.3557
     7.8342   8.4131   8.5840   8.8677

          k = 0.0000 0.2000-0.5000 (  4080 PWs)   bands (ev):

   -46.8001 -23.1706 -23.0674 -23.0451 -22.9985  -7.5826  -6.5457  -6.5043
    -5.0130  -4.8851  -4.5917   5.4545   6.1037   6.5658   6.9358   7.2580
     7.7877   8.4015   8.5509   8.8446

          k = 0.0000 0.3000 0.3000 (  4076 PWs)   bands (ev):

   -46.8001 -23.1443 -23.0873 -23.0452 -23.0042  -7.4309  -6.7261  -6.4976
    -5.0140  -4.8056  -4.7116   5.7233   6.1808   6.2540   6.8977   7.3835
     7.9684   8.2913   8.4505   9.1567

          k = 0.0000 0.3000 0.4000 (  4085 PWs)   bands (ev):

   -46.7999 -23.1449 -23.0891 -23.0446 -23.0120  -7.3739  -6.6998  -6.5174
    -5.0018  -4.7799  -4.6668   5.5141   5.7826   6.1141   6.9198   7.2017
     7.9615   8.2398   8.3041   9.2680

          k = 0.0000 0.3000-0.5000 (  4082 PWs)   bands (ev):

   -46.7998 -23.1474 -23.0865 -23.0443 -23.0161  -7.3633  -6.6391  -6.5631
    -4.9971  -4.7766  -4.6425   5.4223   5.6185   6.0938   6.9462   7.1142
     7.9715   8.2172   8.2555   9.2956

          k = 0.0000 0.4000 0.4000 (  4088 PWs)   bands (ev):

   -46.7996 -23.1264 -23.1020 -23.0439 -23.0281  -7.1917  -6.7613  -6.5792
    -4.9891  -4.7073  -4.6817   5.3607   5.5129   5.7800   6.9334   7.0694
     8.0634   8.1163   8.1978   9.4853

          k = 0.0000 0.4000-0.5000 (  4078 PWs)   bands (ev):

   -46.7996 -23.1219 -23.1017 -23.0437 -23.0369  -7.1167  -6.7379  -6.6557
    -4.9842  -4.6982  -4.6661   5.3094   5.3417   5.7225   6.9558   7.0019
     8.0514   8.1189   8.1769   9.5503

          k = 0.0000-0.5000-0.5000 (  4076 PWs)   bands (ev):

   -46.7995 -23.1076 -23.1076 -23.0494 -23.0434  -6.9428  -6.7738  -6.7738
    -4.9793  -4.6699  -4.6699   5.2034   5.2635   5.6251   6.9599   6.9599
     7.9792   8.1751   8.1751   9.6291

          k = 0.1000 0.1000 0.1000 (  4058 PWs)   bands (ev):

   -46.8011 -23.1191 -23.0541 -23.0541 -23.0160  -7.5672  -6.6238  -6.6238
    -5.0350  -5.0350  -4.9432   6.6092   6.8622   6.8622   8.0884   8.0884
     8.6771   8.7229   9.0636   9.0636

          k = 0.1000 0.1000 0.2000 (  4067 PWs)   bands (ev):

   -46.8008 -23.1355 -23.0583 -23.0534 -23.0051  -7.5639  -6.6266  -6.6040
    -5.0409  -4.9945  -4.8299   6.3379   6.7699   6.8568   7.7025   7.7660
     8.3645   8.6607   8.8590   8.9695

          k = 0.1000 0.1000 0.3000 (  4065 PWs)   bands (ev):

   -46.8005 -23.1571 -23.0565 -23.0525 -22.9970  -7.6020  -6.5790  -6.5592
    -5.0487  -4.9608  -4.6952   5.9541   6.6671   6.8578   7.2769   7.3578
     8.1788   8.5294   8.6843   8.8735

          k = 0.1000 0.1000 0.4000 (  4066 PWs)   bands (ev):

   -46.8003 -23.1746 -23.0532 -23.0518 -22.9923  -7.6557  -6.5583  -6.4628
    -5.0555  -4.9344  -4.5977   5.6064   6.5968   6.8804   6.9180   7.1086
     8.1084   8.3921   8.5560   8.8101

          k = 0.1000 0.1000-0.5000 (  4066 PWs)   bands (ev):

   -46.8002 -23.1811 -23.0518 -23.0516 -22.9908  -7.6796  -6.5503  -6.4186
    -5.0582  -4.9242  -4.5630   5.4659   6.5824   6.7837   6.9275   6.9831
     8.0928   8.3364   8.5063   8.7881

          k = 0.1000 0.2000 0.2000 (  4067 PWs)   bands (ev):

   -46.8006 -23.1383 -23.0688 -23.0543 -23.0002  -7.5154  -6.6606  -6.5767
    -5.0330  -4.9462  -4.7799   6.1572   6.6241   6.8163   7.2604   7.6045
     8.0452   8.6807   8.8007   8.8807

          k = 0.1000 0.2000 0.3000 (  4077 PWs)   bands (ev):

   -46.8003 -23.1485 -23.0724 -23.0531 -22.9988  -7.4975  -6.6458  -6.5346
    -5.0440  -4.8957  -4.7045   5.8734   6.4158   6.8001   6.8227   7.2999
     7.9433   8.5289   8.6864   8.9079

          k = 0.1000 0.2000 0.4000 (  4075 PWs)   bands (ev):

   -46.8001 -23.1608 -23.0692 -23.0518 -23.0002  -7.5161  -6.5785  -6.5072
    -5.0600  -4.8558  -4.6445   5.5805   6.1949   6.6002   6.8180   7.0407
     8.0011   8.3394   8.6298   8.8733

          k = 0.1000 0.2000-0.5000 (  4070 PWs)   bands (ev):

   -46.8000 -23.1661 -23.0671 -23.0510 -23.0012  -7.5293  -6.5260  -6.5142
    -5.0670  -4.8401  -4.6227   5.4515   6.1055   6.5464   6.8859   6.8868
     8.0862   8.2115   8.6100   8.8517

          k = 0.1000 0.3000 0.3000 (  4066 PWs)   bands (ev):

   -46.8000 -23.1408 -23.0870 -23.0521 -23.0049  -7.3846  -6.7009  -6.5004
    -5.0397  -4.8387  -4.6986   5.7103   6.1834   6.2856   6.7704   7.1712
     7.7720   8.4919   8.5040   9.1589

          k = 0.1000 0.3000 0.4000 (  4084 PWs)   bands (ev):

   -46.7998 -23.1415 -23.0888 -23.0509 -23.0131  -7.3231  -6.6758  -6.5042
    -5.0451  -4.7928  -4.6861   5.5171   5.8152   6.1211   6.7785   6.9859
     7.7961   8.3467   8.4773   9.2712

          k = 0.1000 0.3000-0.5000 (  4076 PWs)   bands (ev):

   -46.7997 -23.1441 -23.0862 -23.0502 -23.0175  -7.3105  -6.6250  -6.5348
    -5.0489  -4.7722  -4.6820   5.4224   5.6650   6.0969   6.8405   6.8538
     7.8333   8.2836   8.4648   9.2993

          k = 0.1000 0.4000 0.4000 (  4074 PWs)   bands (ev):

   -46.7996 -23.1241 -23.1017 -23.0501 -23.0283  -7.1403  -6.7303  -6.5528
    -5.0299  -4.7521  -4.7041   5.3923   5.5487   5.7821   6.7744   6.8940
     7.7294   8.3553   8.4176   9.4905

          k = 0.1000 0.4000-0.5000 (  4070 PWs)   bands (ev):

   -46.7995 -23.1202 -23.1014 -23.0495 -23.0367  -7.0641  -6.7095  -6.6203
    -5.0241  -4.7318  -4.7126   5.3450   5.3816   5.7249   6.8103   6.8168
     7.7154   8.3602   8.4048   9.5567

          k = 0.1000-0.5000-0.5000 (  4084 PWs)   bands (ev):

   -46.7994 -23.1073 -23.1073 -23.0493 -23.0479  -6.8854  -6.7408  -6.7408
    -5.0129  -4.7189  -4.7189   5.2674   5.2845   5.6267   6.7995   6.7995
     7.6772   8.3936   8.3936   9.6369

          k = 0.2000 0.2000 0.2000 (  4079 PWs)   bands (ev):

   -46.8004 -23.1359 -23.0681 -23.0681 -22.9990  -7.4425  -6.6158  -6.6158
    -4.9925  -4.9925  -4.7275   6.0027   6.6239   6.6239   7.2235   7.2235
     7.5431   8.7759   8.7759   8.9423

          k = 0.2000 0.2000 0.3000 (  4083 PWs)   bands (ev):

   -46.8001 -23.1397 -23.0742 -23.0672 -23.0016  -7.3873  -6.6159  -6.5564
    -5.0541  -4.9206  -4.6912   5.7954   6.3501   6.6151   6.8199   6.9190
     7.4454   8.7258   8.7519   8.9995

          k = 0.2000 0.2000 0.4000 (  4075 PWs)   bands (ev):

   -46.7998 -23.1488 -23.0701 -23.0665 -23.0065  -7.3766  -6.5713  -6.5042
    -5.1081  -4.8403  -4.6883   5.5609   6.1026   6.5366   6.5759   6.7615
     7.5026   8.6834   8.7053   8.9785

          k = 0.2000 0.2000-0.5000 (  4080 PWs)   bands (ev):

   -46.7998 -23.1533 -23.0667 -23.0662 -23.0093  -7.3801  -6.5443  -6.4831
    -5.1300  -4.7968  -4.7007   5.4425   6.0228   6.4528   6.5420   6.7291
     7.5322   8.6687   8.6798   8.9589

          k = 0.2000 0.3000 0.3000 (  4067 PWs)   bands (ev):

   -46.7998 -23.1314 -23.0862 -23.0687 -23.0083  -7.2625  -6.6303  -6.5117
    -5.0709  -4.9298  -4.6936   5.6773   6.1906   6.3615   6.5185   6.8215
     7.1392   8.7270   8.8158   9.1891

          k = 0.2000 0.3000 0.4000 (  4084 PWs)   bands (ev):

   -46.7996 -23.1322 -23.0879 -23.0669 -23.0171  -7.1844  -6.6137  -6.4721
    -5.1217  -4.8696  -4.7283   5.5214   5.8884   6.1462   6.4850   6.6579
     7.1464   8.7268   8.8109   9.2917

          k = 0.2000 0.3000-0.5000 (  4074 PWs)   bands (ev):

   -46.7995 -23.1349 -23.0854 -23.0656 -23.0218  -7.1637  -6.5888  -6.4639
    -5.1465  -4.7970  -4.7862   5.4211   5.7758   6.1035   6.4817   6.5892
     7.1676   8.7416   8.7867   9.3184

          k = 0.2000 0.4000 0.4000 (  4078 PWs)   bands (ev):

   -46.7993 -23.1178 -23.1009 -23.0657 -23.0295  -7.0006  -6.6421  -6.4844
    -5.1207  -4.8762  -4.7777   5.4326   5.6827   5.7877   6.4794   6.5877
     7.0370   8.7692   8.8356   9.5066

          k = 0.2000 0.4000-0.5000 (  4080 PWs)   bands (ev):

   -46.7992 -23.1159 -23.1006 -23.0649 -23.0361  -6.9207  -6.6299  -6.5237
    -5.1212  -4.8398  -4.8307   5.3510   5.5703   5.7313   6.5021   6.5321
     7.0203   8.8078   8.8210   9.5744

          k = 0.2000-0.5000-0.5000 (  4084 PWs)   bands (ev):

   -46.7992 -23.1064 -23.1064 -23.0646 -23.0438  -6.7310  -6.6466  -6.6466
    -5.0992  -4.8549  -4.8549   5.2741   5.4972   5.6309   6.5127   6.5127
     6.9802   8.8346   8.8346   9.6573

          k = 0.3000 0.3000 0.3000 (  4056 PWs)   bands (ev):

   -46.7995 -23.1207 -23.0853 -23.0853 -23.0153  -7.1119  -6.5312  -6.5312
    -5.0544  -5.0544  -4.7288   5.6291   6.2011   6.2011   6.4464   6.5296
     6.5296   8.9657   8.9657   9.2907

          k = 0.3000 0.3000 0.4000 (  4078 PWs)   bands (ev):

   -46.7993 -23.1195 -23.0882 -23.0845 -23.0239  -6.9951  -6.5449  -6.4372
    -5.1691  -4.9876  -4.8003   5.5153   5.9159   6.1505   6.2156   6.3396
     6.5947   9.0041   9.1107   9.3799

          k = 0.3000 0.3000-0.5000 (  4098 PWs)   bands (ev):

   -46.7992 -23.1224 -23.0847 -23.0842 -23.0284  -6.9538  -6.5470  -6.3964
    -5.2177  -4.9143  -4.8734   5.4085   5.8521   6.0605   6.2405   6.2555
     6.6306   9.0133   9.1561   9.4062

          k = 0.3000 0.4000 0.4000 (  4075 PWs)   bands (ev):

   -46.7990 -23.1096 -23.0999 -23.0847 -23.0316  -6.8115  -6.5136  -6.4102
    -5.1991  -5.0486  -4.8978   5.4412   5.7953   5.8701   6.1678   6.3275
     6.3720   9.1678   9.2186   9.5354

          k = 0.3000 0.4000-0.5000 (  4080 PWs)   bands (ev):

   -46.7990 -23.1106 -23.0996 -23.0837 -23.0354  -6.7225  -6.5175  -6.4012
    -5.2262  -5.0115  -4.9792   5.3433   5.7388   5.8012   6.1953   6.2430
     6.3858   9.2063   9.2585   9.6000

          k = 0.3000-0.5000-0.5000 (  4064 PWs)   bands (ev):

   -46.7989 -23.1054 -23.1054 -23.0834 -23.0388  -6.5312  -6.5076  -6.5076
    -5.2026  -5.0449  -5.0449   5.2653   5.6361   5.7610   6.2499   6.2672
     6.2672   9.2759   9.2759   9.6829

          k = 0.4000 0.4000 0.4000 (  4068 PWs)   bands (ev):

   -46.7988 -23.1033 -23.0990 -23.0990 -23.0338  -6.6241  -6.3834  -6.3834
    -5.2141  -5.2141  -5.0348   5.3695   5.8027   5.8027   5.9861   6.1613
     6.1613   9.4435   9.4435   9.5917

          k = 0.4000 0.4000-0.5000 (  4084 PWs)   bands (ev):

   -46.7987 -23.1063 -23.0989 -23.0987 -23.0349  -6.5167  -6.4100  -6.3231
    -5.2878  -5.1663  -5.1371   5.2769   5.7181   5.8061   5.9654   6.1043
     6.1723   9.4917   9.5409   9.6422

          k = 0.4000-0.5000-0.5000 (  4080 PWs)   bands (ev):

   -46.7986 -23.1046 -23.1046 -23.0985 -23.0347  -6.3632  -6.3632  -6.3614
    -5.2839  -5.2300  -5.2300   5.2016   5.6403   5.7725   5.9758   6.1112
     6.1112   9.5952   9.5952   9.7038

          k =-0.5000-0.5000-0.5000 (  4032 PWs)   bands (ev):

   -46.7986 -23.1043 -23.1043 -23.1043 -23.0331  -6.2943  -6.2943  -6.2943
    -5.3144  -5.3144  -5.3144   5.1348   5.6419   5.6419   6.0581   6.0581
     6.0581   9.7119   9.7119   9.7119

     highest occupied level (ev):     9.7119

!    total energy              =    -287.01638940 Ry
     estimated scf accuracy    <          5.5E-09 Ry

     The total energy is the sum of the following terms:
     one-electron contribution =     -79.45292808 Ry
     hartree contribution      =      61.59523946 Ry
     xc contribution           =     -58.41566048 Ry
     ewald contribution        =    -210.74304030 Ry

     convergence has been achieved in  21 iterations

     negative rho (up, down):  6.766E-02 0.000E+00

     Forces acting on atoms (cartesian axes, Ry/au):

     atom    1 type  1   force =     0.00000000    0.00000000    0.00000000
     atom    2 type  2   force =     0.00000000    0.00000000   -0.00000000
     atom    3 type  3   force =     0.00000000    0.00000000   -0.00000000
     atom    4 type  3   force =     0.00000000    0.00000000    0.00000000
     atom    5 type  3   force =     0.00000000    0.00000000    0.00000000

     Total force =     0.000000     Total SCF correction =     0.000000


     Computing stress (Cartesian axis) and pressure


     negative rho (up, down):  6.766E-02 0.000E+00
          total   stress  (Ry/bohr**3)                   (kbar)     P=        0.17
   0.00000117   0.00000000   0.00000000            0.17        0.00        0.00
   0.00000000   0.00000117   0.00000000            0.00        0.17        0.00
   0.00000000   0.00000000   0.00000117            0.00        0.00        0.17


     BFGS Geometry Optimization
     Energy error            =      0.0E+00 Ry
     Gradient error          =      2.6E-31 Ry/Bohr
     Cell gradient error     =      1.7E-01 kbar

     bfgs converged in   1 scf cycles and   0 bfgs steps
     (criteria: energy <  1.0E-04 Ry, force <  1.0E-03 Ry/Bohr, cell <  5.0E-01 kbar)

     End of BFGS Geometry Optimization

     Final enthalpy           =    -287.0163894008 Ry
Begin final coordinates
     new unit-cell volume =    412.02015 a.u.^3 (    61.05509 Ang^3 )
     density =      4.99029 g/cm^3

CELL_PARAMETERS (angstrom)
   3.937681803   0.000000000   0.000000000
   0.000000000   3.937681803   0.000000000
   0.000000000   0.000000000   3.937681803

ATOMIC_POSITIONS (crystal)
Sr            0.0000000000        0.0000000000        0.0000000000
Ti            0.5000000000        0.5000000000        0.5000000000
O             0.5000000000        0.5000000000        0.0000000000
O             0.5000000000        0.0000000000        0.5000000000
O             0.0000000000        0.5000000000        0.5000000000
End final coordinates



     Writing config-only to output data dir ./out/SrTiO3.save/

     Final scf calculation at the relaxed structure.
     The G-vectors are recalculated for the final unit cell
     Results may differ from those at the preceding step.
 
     Parallelization info
     --------------------
     sticks:   dense  smooth     PW     G-vecs:    dense   smooth      PW
     Min         441     175     51                18417     4647     751
     Max         443     177     53                18418     4648     751
     Sum        3093    1229    365               128923    32531    5257
 
     Using Slab Decomposition
 


     bravais-lattice index     =            0
     lattice parameter (alat)  =       7.4411  a.u.
     unit-cell volume          =     412.0202 (a.u.)^3
     number of atoms/cell      =            5
     number of atomic types    =            3
     number of electrons       =        40.00
     number of Kohn-Sham states=           20
     kinetic-energy cutoff     =      70.0000  Ry
     charge density cutoff     =     700.0000  Ry
     scf convergence threshold =      1.0E-08
     mixing beta               =       0.7000
     number of iterations used =            8  plain     mixing
     press convergence thresh. =      5.0E-01
     Exchange-correlation= SLA  PW   PBE  PBE
                           (   1   4   3   4   0   0   0)

     celldm(1)=   7.441140  celldm(2)=   0.000000  celldm(3)=   0.000000
     celldm(4)=   0.000000  celldm(5)=   0.000000  celldm(6)=   0.000000

     crystal axes: (cart. coord. in units of alat)
               a(1) = (   1.000000   0.000000   0.000000 )  
               a(2) = (   0.000000   1.000000   0.000000 )  
               a(3) = (   0.000000   0.000000   1.000000 )  

     reciprocal axes: (cart. coord. in units 2 pi/alat)
               b(1) = (  1.000000  0.000000  0.000000 )  
               b(2) = (  0.000000  1.000000  0.000000 )  
               b(3) = (  0.000000  0.000000  1.000000 )  


     PseudoPot. # 1 for Sr read from file:
     /home/k0750/k075000/PSPOT/sr_pbe_v1.uspp.F.UPF
     MD5 check sum: 6b418c05fbe9db5448babca5e47b7a5b
     Pseudo is Ultrasoft + core correction, Zval = 10.0
     Generated by new atomic code, or converted to UPF format
     Using radial grid of  883 points,  6 beta functions with: 
                l(1) =   0
                l(2) =   0
                l(3) =   1
                l(4) =   1
                l(5) =   2
                l(6) =   2
     Q(r) pseudized with  6 coefficients,  rinner =    1.400   1.400   1.400
                                                       1.400   1.400

     PseudoPot. # 2 for Ti read from file:
     /home/k0750/k075000/PSPOT/ti_pbe_v1.4.uspp.F.UPF
     MD5 check sum: 88a00a6731bd790ddea75d31a80cb452
     Pseudo is Ultrasoft + core correction, Zval = 12.0
     Generated by new atomic code, or converted to UPF format
     Using radial grid of  851 points,  6 beta functions with: 
                l(1) =   0
                l(2) =   0
                l(3) =   1
                l(4) =   1
                l(5) =   2
                l(6) =   2
     Q(r) pseudized with  6 coefficients,  rinner =    1.000   1.000   1.000
                                                       1.000   1.000

     PseudoPot. # 3 for O  read from file:
     /home/k0750/k075000/PSPOT/o_pbe_v1.2.uspp.F.UPF
     MD5 check sum: 734c27235a0248c51dbae37a1fbe46ec
     Pseudo is Ultrasoft + core correction, Zval =  6.0
     Generated by new atomic code, or converted to UPF format
     Using radial grid of  737 points,  5 beta functions with: 
                l(1) =   0
                l(2) =   0
                l(3) =   1
                l(4) =   1
                l(5) =   2
     Q(r) pseudized with  8 coefficients,  rinner =    0.900   0.900   0.900
                                                       0.900   0.900

     atomic species   valence    mass     pseudopotential
        Sr            10.00    87.62000     Sr( 1.00)
        Ti            12.00    47.86700     Ti( 1.00)
        O              6.00    15.99900     O ( 1.00)

     48 Sym. Ops., with inversion, found



   Cartesian axes

     site n.     atom                  positions (alat units)
         1           Sr  tau(   1) = (   0.0000000   0.0000000   0.0000000  )
         2           Ti  tau(   2) = (   0.5000000   0.5000000   0.5000000  )
         3           O   tau(   3) = (   0.5000000   0.5000000   0.0000000  )
         4           O   tau(   4) = (   0.5000000   0.0000000   0.5000000  )
         5           O   tau(   5) = (   0.0000000   0.5000000   0.5000000  )

     number of k points=    56
                       cart. coord. in units 2pi/alat
        k(    1) = (   0.0000000   0.0000000   0.0000000), wk =   0.0020000
        k(    2) = (   0.0000000   0.0000000   0.1000000), wk =   0.0120000
        k(    3) = (   0.0000000   0.0000000   0.2000000), wk =   0.0120000
        k(    4) = (   0.0000000   0.0000000   0.3000000), wk =   0.0120000
        k(    5) = (   0.0000000   0.0000000   0.4000000), wk =   0.0120000
        k(    6) = (   0.0000000   0.0000000  -0.5000000), wk =   0.0060000
        k(    7) = (   0.0000000   0.1000000   0.1000000), wk =   0.0240000
        k(    8) = (   0.0000000   0.1000000   0.2000000), wk =   0.0480000
        k(    9) = (   0.0000000   0.1000000   0.3000000), wk =   0.0480000
        k(   10) = (   0.0000000   0.1000000   0.4000000), wk =   0.0480000
        k(   11) = (   0.0000000   0.1000000  -0.5000000), wk =   0.0240000
        k(   12) = (   0.0000000   0.2000000   0.2000000), wk =   0.0240000
        k(   13) = (   0.0000000   0.2000000   0.3000000), wk =   0.0480000
        k(   14) = (   0.0000000   0.2000000   0.4000000), wk =   0.0480000
        k(   15) = (   0.0000000   0.2000000  -0.5000000), wk =   0.0240000
        k(   16) = (   0.0000000   0.3000000   0.3000000), wk =   0.0240000
        k(   17) = (   0.0000000   0.3000000   0.4000000), wk =   0.0480000
        k(   18) = (   0.0000000   0.3000000  -0.5000000), wk =   0.0240000
        k(   19) = (   0.0000000   0.4000000   0.4000000), wk =   0.0240000
        k(   20) = (   0.0000000   0.4000000  -0.5000000), wk =   0.0240000
        k(   21) = (   0.0000000  -0.5000000  -0.5000000), wk =   0.0060000
        k(   22) = (   0.1000000   0.1000000   0.1000000), wk =   0.0160000
        k(   23) = (   0.1000000   0.1000000   0.2000000), wk =   0.0480000
        k(   24) = (   0.1000000   0.1000000   0.3000000), wk =   0.0480000
        k(   25) = (   0.1000000   0.1000000   0.4000000), wk =   0.0480000
        k(   26) = (   0.1000000   0.1000000  -0.5000000), wk =   0.0240000
        k(   27) = (   0.1000000   0.2000000   0.2000000), wk =   0.0480000
        k(   28) = (   0.1000000   0.2000000   0.3000000), wk =   0.0960000
        k(   29) = (   0.1000000   0.2000000   0.4000000), wk =   0.0960000
        k(   30) = (   0.1000000   0.2000000  -0.5000000), wk =   0.0480000
        k(   31) = (   0.1000000   0.3000000   0.3000000), wk =   0.0480000
        k(   32) = (   0.1000000   0.3000000   0.4000000), wk =   0.0960000
        k(   33) = (   0.1000000   0.3000000  -0.5000000), wk =   0.0480000
        k(   34) = (   0.1000000   0.4000000   0.4000000), wk =   0.0480000
        k(   35) = (   0.1000000   0.4000000  -0.5000000), wk =   0.0480000
        k(   36) = (   0.1000000  -0.5000000  -0.5000000), wk =   0.0120000
        k(   37) = (   0.2000000   0.2000000   0.2000000), wk =   0.0160000
        k(   38) = (   0.2000000   0.2000000   0.3000000), wk =   0.0480000
        k(   39) = (   0.2000000   0.2000000   0.4000000), wk =   0.0480000
        k(   40) = (   0.2000000   0.2000000  -0.5000000), wk =   0.0240000
        k(   41) = (   0.2000000   0.3000000   0.3000000), wk =   0.0480000
        k(   42) = (   0.2000000   0.3000000   0.4000000), wk =   0.0960000
        k(   43) = (   0.2000000   0.3000000  -0.5000000), wk =   0.0480000
        k(   44) = (   0.2000000   0.4000000   0.4000000), wk =   0.0480000
        k(   45) = (   0.2000000   0.4000000  -0.5000000), wk =   0.0480000
        k(   46) = (   0.2000000  -0.5000000  -0.5000000), wk =   0.0120000
        k(   47) = (   0.3000000   0.3000000   0.3000000), wk =   0.0160000
        k(   48) = (   0.3000000   0.3000000   0.4000000), wk =   0.0480000
        k(   49) = (   0.3000000   0.3000000  -0.5000000), wk =   0.0240000
        k(   50) = (   0.3000000   0.4000000   0.4000000), wk =   0.0480000
        k(   51) = (   0.3000000   0.4000000  -0.5000000), wk =   0.0480000
        k(   52) = (   0.3000000  -0.5000000  -0.5000000), wk =   0.0120000
        k(   53) = (   0.4000000   0.4000000   0.4000000), wk =   0.0160000
        k(   54) = (   0.4000000   0.4000000  -0.5000000), wk =   0.0240000
        k(   55) = (   0.4000000  -0.5000000  -0.5000000), wk =   0.0120000
        k(   56) = (  -0.5000000  -0.5000000  -0.5000000), wk =   0.0020000

     Dense  grid:   128923 G-vectors     FFT dimensions: (  64,  64,  64)

     Smooth grid:    32531 G-vectors     FFT dimensions: (  40,  40,  40)

     Estimated max dynamical RAM per process >      26.65 MB

     Estimated total dynamical RAM >      10.63 GB

     Check: negative core charge=   -0.000002

     Initial potential from superposition of free atoms

     starting charge      38.9663, renormalised to      40.0000

     negative rho (up, down):  6.691E-02 0.000E+00
     Starting wfcs are   35 randomized atomic wfcs

     total cpu time spent up to now is       12.1 secs

     Self-consistent Calculation

     iteration #  1     ecut=    70.00 Ry     beta= 0.70
     Davidson diagonalization with overlap
     ethr =  1.00E-06,  avg # of iterations =  7.6

     negative rho (up, down):  6.529E-02 0.000E+00

     total cpu time spent up to now is       12.9 secs

     total energy              =    -286.55216715 Ry
     estimated scf accuracy    <       0.93952208 Ry

     iteration #  2     ecut=    70.00 Ry     beta= 0.70
     Davidson diagonalization with overlap
     ethr =  2.35E-03,  avg # of iterations =  5.8

     negative rho (up, down):  6.500E-02 0.000E+00

     total cpu time spent up to now is       13.3 secs

     total energy              =    -285.55072305 Ry
     estimated scf accuracy    <       8.76892552 Ry

     iteration #  3     ecut=    70.00 Ry     beta= 0.70
     Davidson diagonalization with overlap
     ethr =  2.35E-03,  avg # of iterations =  5.4

     negative rho (up, down):  6.674E-02 0.000E+00

     total cpu time spent up to now is       13.5 secs

     total energy              =    -287.00605119 Ry
     estimated scf accuracy    <       0.25501352 Ry

     iteration #  4     ecut=    70.00 Ry     beta= 0.70
     Davidson diagonalization with overlap
     ethr =  6.38E-04,  avg # of iterations =  2.0

     negative rho (up, down):  6.760E-02 0.000E+00

     total cpu time spent up to now is       13.6 secs

     total energy              =    -286.99531255 Ry
     estimated scf accuracy    <       0.10661380 Ry

     iteration #  5     ecut=    70.00 Ry     beta= 0.70
     Davidson diagonalization with overlap
     ethr =  2.67E-04,  avg # of iterations =  3.7

     negative rho (up, down):  6.769E-02 0.000E+00

     total cpu time spent up to now is       13.7 secs

     total energy              =    -287.00867665 Ry
     estimated scf accuracy    <       0.00536380 Ry

     iteration #  6     ecut=    70.00 Ry     beta= 0.70
     Davidson diagonalization with overlap
     ethr =  1.34E-05,  avg # of iterations =  4.2

     negative rho (up, down):  6.770E-02 0.000E+00

     total cpu time spent up to now is       13.9 secs

     total energy              =    -287.01153644 Ry
     estimated scf accuracy    <       0.00188633 Ry

     iteration #  7     ecut=    70.00 Ry     beta= 0.70
     Davidson diagonalization with overlap
     ethr =  4.72E-06,  avg # of iterations =  2.0

     negative rho (up, down):  6.767E-02 0.000E+00

     total cpu time spent up to now is       14.0 secs

     total energy              =    -287.01146903 Ry
     estimated scf accuracy    <       0.00048394 Ry

     iteration #  8     ecut=    70.00 Ry     beta= 0.70
     Davidson diagonalization with overlap
     ethr =  1.21E-06,  avg # of iterations =  4.2

     negative rho (up, down):  6.767E-02 0.000E+00

     total cpu time spent up to now is       14.2 secs

     total energy              =    -287.01635042 Ry
     estimated scf accuracy    <       0.00036718 Ry

     iteration #  9     ecut=    70.00 Ry     beta= 0.70
     Davidson diagonalization with overlap
     ethr =  9.18E-07,  avg # of iterations =  2.8

     negative rho (up, down):  6.767E-02 0.000E+00

     total cpu time spent up to now is       14.3 secs

     total energy              =    -287.01637549 Ry
     estimated scf accuracy    <       0.00005072 Ry

     iteration # 10     ecut=    70.00 Ry     beta= 0.70
     Davidson diagonalization with overlap
     ethr =  1.27E-07,  avg # of iterations =  4.0

     negative rho (up, down):  6.767E-02 0.000E+00

     total cpu time spent up to now is       14.4 secs

     total energy              =    -287.01638914 Ry
     estimated scf accuracy    <       0.00000011 Ry

     iteration # 11     ecut=    70.00 Ry     beta= 0.70
     Davidson diagonalization with overlap
     ethr =  2.66E-10,  avg # of iterations =  5.5

     negative rho (up, down):  6.767E-02 0.000E+00

     total cpu time spent up to now is       14.5 secs

     total energy              =    -287.01638943 Ry
     estimated scf accuracy    <       0.00000021 Ry

     iteration # 12     ecut=    70.00 Ry     beta= 0.70
     Davidson diagonalization with overlap
     ethr =  2.66E-10,  avg # of iterations =  1.0

     negative rho (up, down):  6.766E-02 0.000E+00

     total cpu time spent up to now is       14.6 secs

     total energy              =    -287.01638938 Ry
     estimated scf accuracy    <       0.00000017 Ry

     iteration # 13     ecut=    70.00 Ry     beta= 0.70
     Davidson diagonalization with overlap
     ethr =  2.66E-10,  avg # of iterations =  3.0

     negative rho (up, down):  6.766E-02 0.000E+00

     total cpu time spent up to now is       14.7 secs

     total energy              =    -287.01638940 Ry
     estimated scf accuracy    <       0.00000001 Ry

     iteration # 14     ecut=    70.00 Ry     beta= 0.70
     Davidson diagonalization with overlap
     ethr =  2.72E-11,  avg # of iterations =  3.9

     negative rho (up, down):  6.766E-02 0.000E+00

     total cpu time spent up to now is       14.9 secs

     End of self-consistent calculation

          k = 0.0000 0.0000 0.0000 (  4067 PWs)   bands (ev):

   -46.8016 -23.0871 -23.0490 -23.0490 -23.0490  -7.5804  -6.6120  -6.6120
    -5.0737  -5.0737  -5.0737   6.9156   6.9156   6.9156   8.5793   8.5793
     8.5793   9.3486   9.3486   9.3486

          k = 0.0000 0.0000 0.1000 (  4028 PWs)   bands (ev):

   -46.8015 -23.1051 -23.0487 -23.0487 -23.0348  -7.5823  -6.6207  -6.6085
    -5.0696  -5.0696  -5.0060   6.7873   6.9107   6.9107   8.4509   8.4509
     8.4940   9.0380   9.2821   9.2821

          k = 0.0000 0.0000 0.2000 (  4056 PWs)   bands (ev):

   -46.8013 -23.1354 -23.0480 -23.0480 -23.0145  -7.6118  -6.5993  -6.5969
    -5.0589  -5.0589  -4.8476   6.4435   6.9009   6.9009   8.1383   8.1383
     8.2851   8.3923   9.1670   9.1670

          k = 0.0000 0.0000 0.3000 (  4068 PWs)   bands (ev):

   -46.8010 -23.1642 -23.0472 -23.0472 -22.9980  -7.6836  -6.5880  -6.4978
    -5.0455  -5.0455  -4.6788   5.9986   6.8980   6.8980   7.7935   7.7935
     7.7962   8.0505   9.0704   9.0704

          k = 0.0000 0.0000 0.4000 (  4076 PWs)   bands (ev):

   -46.8008 -23.1847 -23.0465 -23.0465 -22.9873  -7.7568  -6.5788  -6.3798
    -5.0347  -5.0347  -4.5584   5.6230   6.9118   6.9118   7.4163   7.5296
     7.5296   7.8759   9.0073   9.0073

          k = 0.0000 0.0000-0.5000 (  4068 PWs)   bands (ev):

   -46.8007 -23.1922 -23.0463 -23.0463 -22.9836  -7.7866  -6.5752  -6.3280
    -5.0305  -5.0305  -4.5156   5.4766   6.9255   6.9255   7.2887   7.4260
     7.4260   7.8122   8.9854   8.9854

          k = 0.0000 0.1000 0.1000 (  4028 PWs)   bands (ev):

   -46.8014 -23.1138 -23.0546 -23.0484 -23.0238  -7.5774  -6.6312  -6.6067
    -5.0654  -5.0328  -4.9772   6.6993   6.8651   6.9063   8.1705   8.3411
     8.5863   8.9102   9.1006   9.2002

          k = 0.0000 0.1000 0.2000 (  4057 PWs)   bands (ev):

   -46.8012 -23.1358 -23.0568 -23.0478 -23.0091  -7.5890  -6.6295  -6.5863
    -5.0545  -5.0125  -4.8430   6.3955   6.8100   6.8977   7.7535   8.0606
     8.3582   8.5773   8.9649   9.0579

          k = 0.0000 0.1000 0.3000 (  4065 PWs)   bands (ev):

   -46.8009 -23.1607 -23.0552 -23.0469 -22.9974  -7.6430  -6.5919  -6.5251
    -5.0410  -5.0006  -4.6884   5.9776   6.7573   6.8964   7.3090   7.7364
     7.9380   8.4252   8.8614   8.9438

          k = 0.0000 0.1000 0.4000 (  4080 PWs)   bands (ev):

   -46.8007 -23.1796 -23.0531 -23.0463 -22.9900  -7.7063  -6.5707  -6.4263
    -5.0299  -4.9909  -4.5776   5.6145   6.7213   6.9125   6.9776   7.4811
     7.7023   8.2943   8.7919   8.8726

          k = 0.0000 0.1000-0.5000 (  4074 PWs)   bands (ev):

   -46.8006 -23.1866 -23.0522 -23.0460 -22.9874  -7.7330  -6.5638  -6.3803
    -5.0257  -4.9869  -4.5382   5.4709   6.7175   6.8506   6.9283   7.3787
     7.6275   8.2437   8.7674   8.8484

          k = 0.0000 0.2000 0.2000 (  4054 PWs)   bands (ev):

   -46.8010 -23.1401 -23.0694 -23.0471 -23.0021  -7.5479  -6.6769  -6.5543
    -5.0431  -4.9293  -4.8068   6.2171   6.6237   6.8917   7.2523   7.8503
     8.2502   8.5009   8.8525   8.8929

          k = 0.0000 0.2000 0.3000 (  4067 PWs)   bands (ev):

   -46.8007 -23.1521 -23.0728 -23.0463 -22.9987  -7.5404  -6.6638  -6.5173
    -5.0289  -4.8979  -4.7092   5.9010   6.4340   6.8006   6.8938   7.5833
     7.9865   8.4429   8.6845   8.9070

          k = 0.0000 0.2000 0.4000 (  4095 PWs)   bands (ev):

   -46.8004 -23.1653 -23.0698 -23.0456 -22.9983  -7.5668  -6.5950  -6.4976
    -5.0174  -4.8886  -4.6233   5.5871   6.2046   6.6057   6.9147   7.3558
     7.8343   8.4132   8.5840   8.8678

          k = 0.0000 0.2000-0.5000 (  4080 PWs)   bands (ev):

   -46.8004 -23.1708 -23.0677 -23.0454 -22.9986  -7.5826  -6.5457  -6.5042
    -5.0130  -4.8851  -4.5917   5.4544   6.1038   6.5658   6.9358   7.2580
     7.7877   8.4016   8.5510   8.8446

          k = 0.0000 0.3000 0.3000 (  4076 PWs)   bands (ev):

   -46.8004 -23.1445 -23.0876 -23.0455 -23.0043  -7.4309  -6.7261  -6.4976
    -5.0140  -4.8056  -4.7116   5.7234   6.1808   6.2541   6.8977   7.3835
     7.9684   8.2914   8.4505   9.1568

          k = 0.0000 0.3000 0.4000 (  4085 PWs)   bands (ev):

   -46.8002 -23.1451 -23.0893 -23.0448 -23.0121  -7.3738  -6.6997  -6.5173
    -5.0018  -4.7799  -4.6668   5.5141   5.7826   6.1141   6.9198   7.2017
     7.9616   8.2399   8.3041   9.2680

          k = 0.0000 0.3000-0.5000 (  4082 PWs)   bands (ev):

   -46.8001 -23.1475 -23.0867 -23.0446 -23.0161  -7.3632  -6.6391  -6.5631
    -4.9971  -4.7766  -4.6425   5.4223   5.6185   6.0938   6.9462   7.1143
     7.9716   8.2172   8.2555   9.2957

          k = 0.0000 0.4000 0.4000 (  4088 PWs)   bands (ev):

   -46.7999 -23.1266 -23.1022 -23.0442 -23.0282  -7.1917  -6.7612  -6.5792
    -4.9891  -4.7073  -4.6817   5.3607   5.5130   5.7800   6.9334   7.0694
     8.0635   8.1163   8.1979   9.4854

          k = 0.0000 0.4000-0.5000 (  4078 PWs)   bands (ev):

   -46.7998 -23.1221 -23.1020 -23.0439 -23.0370  -7.1166  -6.7379  -6.6556
    -4.9842  -4.6982  -4.6661   5.3094   5.3417   5.7225   6.9558   7.0020
     8.0514   8.1190   8.1770   9.5504

          k = 0.0000-0.5000-0.5000 (  4076 PWs)   bands (ev):

   -46.7998 -23.1078 -23.1078 -23.0494 -23.0437  -6.9427  -6.7737  -6.7737
    -4.9793  -4.6699  -4.6699   5.2034   5.2635   5.6250   6.9599   6.9599
     7.9792   8.1751   8.1751   9.6292

          k = 0.1000 0.1000 0.1000 (  4058 PWs)   bands (ev):

   -46.8013 -23.1192 -23.0543 -23.0543 -23.0162  -7.5671  -6.6237  -6.6237
    -5.0350  -5.0350  -4.9432   6.6093   6.8623   6.8623   8.0884   8.0884
     8.6772   8.7230   9.0637   9.0637

          k = 0.1000 0.1000 0.2000 (  4067 PWs)   bands (ev):

   -46.8011 -23.1357 -23.0585 -23.0536 -23.0052  -7.5638  -6.6265  -6.6039
    -5.0409  -4.9945  -4.8299   6.3379   6.7699   6.8568   7.7025   7.7661
     8.3646   8.6608   8.8591   8.9695

          k = 0.1000 0.1000 0.3000 (  4065 PWs)   bands (ev):

   -46.8008 -23.1573 -23.0568 -23.0528 -22.9971  -7.6019  -6.5789  -6.5591
    -5.0487  -4.9608  -4.6952   5.9541   6.6672   6.8578   7.2769   7.3578
     8.1788   8.5295   8.6844   8.8735

          k = 0.1000 0.1000 0.4000 (  4066 PWs)   bands (ev):

   -46.8006 -23.1747 -23.0535 -23.0521 -22.9924  -7.6557  -6.5583  -6.4627
    -5.0555  -4.9344  -4.5977   5.6063   6.5968   6.8804   6.9181   7.1087
     8.1085   8.3921   8.5560   8.8102

          k = 0.1000 0.1000-0.5000 (  4066 PWs)   bands (ev):

   -46.8005 -23.1813 -23.0520 -23.0518 -22.9909  -7.6795  -6.5502  -6.4185
    -5.0582  -4.9242  -4.5630   5.4659   6.5824   6.7837   6.9276   6.9832
     8.0928   8.3364   8.5063   8.7881

          k = 0.1000 0.2000 0.2000 (  4067 PWs)   bands (ev):

   -46.8009 -23.1384 -23.0691 -23.0545 -23.0003  -7.5154  -6.6605  -6.5767
    -5.0330  -4.9462  -4.7799   6.1573   6.6241   6.8164   7.2604   7.6045
     8.0452   8.6807   8.8007   8.8808

          k = 0.1000 0.2000 0.3000 (  4077 PWs)   bands (ev):

   -46.8006 -23.1487 -23.0727 -23.0534 -22.9990  -7.4975  -6.6457  -6.5345
    -5.0440  -4.8957  -4.7045   5.8735   6.4158   6.8001   6.8227   7.2999
     7.9433   8.5289   8.6864   8.9079

          k = 0.1000 0.2000 0.4000 (  4075 PWs)   bands (ev):

   -46.8004 -23.1610 -23.0695 -23.0520 -23.0003  -7.5161  -6.5785  -6.5071
    -5.0600  -4.8558  -4.6445   5.5805   6.1950   6.6002   6.8180   7.0407
     8.0012   8.3394   8.6299   8.8734

          k = 0.1000 0.2000-0.5000 (  4070 PWs)   bands (ev):

   -46.8003 -23.1663 -23.0674 -23.0513 -23.0013  -7.5293  -6.5259  -6.5142
    -5.0670  -4.8401  -4.6227   5.4514   6.1055   6.5464   6.8860   6.8869
     8.0862   8.2116   8.6101   8.8518

          k = 0.1000 0.3000 0.3000 (  4066 PWs)   bands (ev):

   -46.8003 -23.1410 -23.0873 -23.0524 -23.0050  -7.3845  -6.7009  -6.5003
    -5.0397  -4.8387  -4.6986   5.7103   6.1834   6.2856   6.7704   7.1712
     7.7720   8.4920   8.5040   9.1590

          k = 0.1000 0.3000 0.4000 (  4084 PWs)   bands (ev):

   -46.8001 -23.1417 -23.0890 -23.0512 -23.0132  -7.3231  -6.6757  -6.5041
    -5.0451  -4.7927  -4.6861   5.5171   5.8152   6.1211   6.7785   6.9859
     7.7961   8.3468   8.4774   9.2713

          k = 0.1000 0.3000-0.5000 (  4076 PWs)   bands (ev):

   -46.8000 -23.1442 -23.0864 -23.0505 -23.0176  -7.3104  -6.6249  -6.5347
    -5.0489  -4.7722  -4.6819   5.4224   5.6651   6.0969   6.8405   6.8538
     7.8334   8.2836   8.4648   9.2994

          k = 0.1000 0.4000 0.4000 (  4074 PWs)   bands (ev):

   -46.7998 -23.1243 -23.1019 -23.0503 -23.0284  -7.1402  -6.7302  -6.5527
    -5.0299  -4.7521  -4.7041   5.3923   5.5487   5.7821   6.7744   6.8941
     7.7294   8.3554   8.4177   9.4906

          k = 0.1000 0.4000-0.5000 (  4070 PWs)   bands (ev):

   -46.7998 -23.1204 -23.1017 -23.0498 -23.0367  -7.0641  -6.7095  -6.6203
    -5.0241  -4.7317  -4.7125   5.3450   5.3816   5.7249   6.8103   6.8168
     7.7154   8.3602   8.4048   9.5568

          k = 0.1000-0.5000-0.5000 (  4084 PWs)   bands (ev):

   -46.7997 -23.1075 -23.1075 -23.0496 -23.0479  -6.8853  -6.7408  -6.7408
    -5.0129  -4.7189  -4.7189   5.2674   5.2845   5.6266   6.7995   6.7995
     7.6772   8.3936   8.3936   9.6369

          k = 0.2000 0.2000 0.2000 (  4079 PWs)   bands (ev):

   -46.8006 -23.1360 -23.0684 -23.0684 -22.9991  -7.4425  -6.6158  -6.6158
    -4.9925  -4.9925  -4.7275   6.0027   6.6239   6.6239   7.2236   7.2236
     7.5431   8.7760   8.7760   8.9424

          k = 0.2000 0.2000 0.3000 (  4083 PWs)   bands (ev):

   -46.8004 -23.1399 -23.0745 -23.0675 -23.0017  -7.3873  -6.6158  -6.5564
    -5.0541  -4.9206  -4.6912   5.7954   6.3501   6.6151   6.8199   6.9190
     7.4454   8.7258   8.7519   8.9996

          k = 0.2000 0.2000 0.4000 (  4075 PWs)   bands (ev):

   -46.8001 -23.1490 -23.0704 -23.0667 -23.0066  -7.3766  -6.5713  -6.5042
    -5.1081  -4.8402  -4.6883   5.5609   6.1027   6.5366   6.5759   6.7615
     7.5027   8.6834   8.7054   8.9785

          k = 0.2000 0.2000-0.5000 (  4080 PWs)   bands (ev):

   -46.8000 -23.1535 -23.0669 -23.0665 -23.0094  -7.3801  -6.5442  -6.4831
    -5.1300  -4.7968  -4.7007   5.4425   6.0228   6.4528   6.5420   6.7291
     7.5322   8.6687   8.6799   8.9589

          k = 0.2000 0.3000 0.3000 (  4067 PWs)   bands (ev):

   -46.8001 -23.1316 -23.0865 -23.0689 -23.0084  -7.2624  -6.6302  -6.5117
    -5.0709  -4.9298  -4.6936   5.6773   6.1906   6.3615   6.5185   6.8215
     7.1393   8.7270   8.8159   9.1891

          k = 0.2000 0.3000 0.4000 (  4084 PWs)   bands (ev):

   -46.7998 -23.1323 -23.0882 -23.0672 -23.0172  -7.1844  -6.6136  -6.4720
    -5.1217  -4.8695  -4.7283   5.5214   5.8884   6.1462   6.4850   6.6579
     7.1464   8.7269   8.8110   9.2917

          k = 0.2000 0.3000-0.5000 (  4074 PWs)   bands (ev):

   -46.7998 -23.1351 -23.0857 -23.0658 -23.0219  -7.1637  -6.5887  -6.4639
    -5.1465  -4.7970  -4.7862   5.4211   5.7758   6.1035   6.4818   6.5892
     7.1676   8.7417   8.7867   9.3185

          k = 0.2000 0.4000 0.4000 (  4078 PWs)   bands (ev):

   -46.7996 -23.1180 -23.1011 -23.0660 -23.0295  -7.0005  -6.6420  -6.4844
    -5.1207  -4.8762  -4.7777   5.4327   5.6827   5.7877   6.4794   6.5878
     7.0370   8.7693   8.8356   9.5067

          k = 0.2000 0.4000-0.5000 (  4080 PWs)   bands (ev):

   -46.7995 -23.1162 -23.1009 -23.0651 -23.0362  -6.9206  -6.6298  -6.5236
    -5.1212  -4.8398  -4.8307   5.3510   5.5703   5.7313   6.5021   6.5321
     7.0203   8.8079   8.8210   9.5745

          k = 0.2000-0.5000-0.5000 (  4084 PWs)   bands (ev):

   -46.7994 -23.1067 -23.1067 -23.0649 -23.0438  -6.7309  -6.6466  -6.6466
    -5.0992  -4.8549  -4.8549   5.2741   5.4972   5.6309   6.5127   6.5127
     6.9802   8.8347   8.8347   9.6574

          k = 0.3000 0.3000 0.3000 (  4056 PWs)   bands (ev):

   -46.7998 -23.1209 -23.0855 -23.0855 -23.0154  -7.1118  -6.5312  -6.5312
    -5.0544  -5.0544  -4.7288   5.6291   6.2011   6.2011   6.4465   6.5296
     6.5296   8.9657   8.9657   9.2908

          k = 0.3000 0.3000 0.4000 (  4078 PWs)   bands (ev):

   -46.7996 -23.1197 -23.0885 -23.0848 -23.0240  -6.9950  -6.5449  -6.4371
    -5.1691  -4.9876  -4.8003   5.5153   5.9159   6.1505   6.2155   6.3396
     6.5947   9.0042   9.1108   9.3800

          k = 0.3000 0.3000-0.5000 (  4098 PWs)   bands (ev):

   -46.7995 -23.1227 -23.0850 -23.0845 -23.0285  -6.9538  -6.5470  -6.3964
    -5.2177  -4.9143  -4.8733   5.4085   5.8521   6.0605   6.2405   6.2556
     6.6306   9.0134   9.1562   9.4063

          k = 0.3000 0.4000 0.4000 (  4075 PWs)   bands (ev):

   -46.7993 -23.1098 -23.1001 -23.0849 -23.0316  -6.8114  -6.5135  -6.4101
    -5.1991  -5.0486  -4.8978   5.4412   5.7953   5.8701   6.1678   6.3275
     6.3720   9.1679   9.2187   9.5354

          k = 0.3000 0.4000-0.5000 (  4080 PWs)   bands (ev):

   -46.7992 -23.1109 -23.0999 -23.0839 -23.0354  -6.7225  -6.5174  -6.4011
    -5.2262  -5.0115  -4.9792   5.3433   5.7388   5.8012   6.1953   6.2430
     6.3858   9.2064   9.2585   9.6001

          k = 0.3000-0.5000-0.5000 (  4064 PWs)   bands (ev):

   -46.7992 -23.1057 -23.1057 -23.0837 -23.0388  -6.5311  -6.5075  -6.5075
    -5.2026  -5.0449  -5.0449   5.2653   5.6361   5.7611   6.2499   6.2672
     6.2672   9.2760   9.2760   9.6830

          k = 0.4000 0.4000 0.4000 (  4068 PWs)   bands (ev):

   -46.7991 -23.1035 -23.0993 -23.0993 -23.0339  -6.6240  -6.3834  -6.3834
    -5.2141  -5.2141  -5.0348   5.3695   5.8027   5.8027   5.9861   6.1613
     6.1613   9.4436   9.4436   9.5918

          k = 0.4000 0.4000-0.5000 (  4084 PWs)   bands (ev):

   -46.7990 -23.1065 -23.0992 -23.0990 -23.0349  -6.5167  -6.4099  -6.3231
    -5.2878  -5.1663  -5.1371   5.2770   5.7181   5.8061   5.9655   6.1043
     6.1723   9.4917   9.5410   9.6423

          k = 0.4000-0.5000-0.5000 (  4080 PWs)   bands (ev):

   -46.7989 -23.1049 -23.1049 -23.0988 -23.0347  -6.3632  -6.3632  -6.3613
    -5.2839  -5.2300  -5.2300   5.2016   5.6403   5.7724   5.9758   6.1112
     6.1112   9.5953   9.5953   9.7039

          k =-0.5000-0.5000-0.5000 (  4032 PWs)   bands (ev):

   -46.7988 -23.1045 -23.1045 -23.1045 -23.0331  -6.2943  -6.2943  -6.2943
    -5.3144  -5.3144  -5.3144   5.1348   5.6419   5.6419   6.0582   6.0582
     6.0582   9.7120   9.7120   9.7120

     highest occupied level (ev):     9.7120

!    total energy              =    -287.01638940 Ry
     estimated scf accuracy    <          4.1E-10 Ry

     The total energy is the sum of the following terms:
     one-electron contribution =     -79.45317741 Ry
     hartree contribution      =      61.59547462 Ry
     xc contribution           =     -58.41564631 Ry
     ewald contribution        =    -210.74304030 Ry

     convergence has been achieved in  14 iterations

     negative rho (up, down):  6.766E-02 0.000E+00

     Forces acting on atoms (cartesian axes, Ry/au):

     atom    1 type  1   force =     0.00000000    0.00000000    0.00000000
     atom    2 type  2   force =     0.00000000    0.00000000    0.00000000
     atom    3 type  3   force =     0.00000000    0.00000000    0.00000000
     atom    4 type  3   force =     0.00000000    0.00000000   -0.00000000
     atom    5 type  3   force =     0.00000000    0.00000000    0.00000000

     Total force =     0.000000     Total SCF correction =     0.000000


     Computing stress (Cartesian axis) and pressure


     negative rho (up, down):  6.766E-02 0.000E+00
          total   stress  (Ry/bohr**3)                   (kbar)     P=        0.31
   0.00000212   0.00000000   0.00000000            0.31        0.00        0.00
   0.00000000   0.00000212   0.00000000            0.00        0.31        0.00
   0.00000000   0.00000000   0.00000212            0.00        0.00        0.31


     Writing all to output data dir ./out/SrTiO3.save/
 
     init_run     :      2.85s CPU      4.35s WALL (       2 calls)
     electrons    :      6.03s CPU      7.69s WALL (       2 calls)
     forces       :      0.85s CPU      0.86s WALL (       2 calls)
     stress       :      1.90s CPU      1.92s WALL (       2 calls)

     Called by init_run:
     wfcinit      :      0.03s CPU      0.10s WALL (       2 calls)
     potinit      :      0.64s CPU      1.46s WALL (       2 calls)
     hinit0       :      1.05s CPU      1.39s WALL (       2 calls)

     Called by electrons:
     c_bands      :      1.03s CPU      1.10s WALL (      35 calls)
     sum_band     :      1.78s CPU      2.55s WALL (      35 calls)
     v_of_rho     :      0.99s CPU      2.05s WALL (      37 calls)
     newd         :      2.30s CPU      2.34s WALL (      37 calls)
     mix_rho      :      0.09s CPU      0.23s WALL (      35 calls)

     Called by c_bands:
     init_us_2    :      0.02s CPU      0.02s WALL (      72 calls)
     init_us_2:cp :      0.02s CPU      0.02s WALL (      72 calls)
     cegterg      :      0.61s CPU      0.67s WALL (      35 calls)

     Called by *egterg:
     cdiaghg      :      0.04s CPU      0.13s WALL (     101 calls)
     h_psi        :      0.47s CPU      0.50s WALL (     103 calls)
     s_psi        :      0.02s CPU      0.03s WALL (     103 calls)
     g_psi        :      0.00s CPU      0.00s WALL (      66 calls)

     Called by h_psi:
     h_psi:calbec :      0.04s CPU      0.05s WALL (     103 calls)
     vloc_psi     :      0.40s CPU      0.41s WALL (     103 calls)
     add_vuspsi   :      0.03s CPU      0.03s WALL (     103 calls)

     General routines
     calbec       :      0.06s CPU      0.07s WALL (     148 calls)
     fft          :      0.87s CPU      2.51s WALL (     527 calls)
     ffts         :      0.26s CPU      0.56s WALL (      72 calls)
     fftw         :      0.46s CPU      0.47s WALL (    4168 calls)
     interpolate  :      0.12s CPU      0.37s WALL (      37 calls)
 
     Parallel routines
 
     PWSCF        :     12.34s CPU     16.47s WALL

 
   This run was terminated on:  12:28:51   4Jun2026            

=------------------------------------------------------------------------------=
   JOB DONE.
=------------------------------------------------------------------------------=
