
     Program PWSCF v.7.4.1 starts on 10Jul2025 at 17:27:17 

     This program is part of the open-source Quantum ESPRESSO suite
     for quantum simulation of materials; please cite
         "P. Giannozzi et al., J. Phys.:Condens. Matter 21 395502 (2009);
         "P. Giannozzi et al., J. Phys.:Condens. Matter 29 465901 (2017);
         "P. Giannozzi et al., J. Chem. Phys. 152 154105 (2020);
          URL http://www.quantum-espresso.org", 
     in publications or presentations arising from this work. More details at
     http://www.quantum-espresso.org/quote

     Parallel version (MPI & OpenMP), running on      80 processor cores
     Number of MPI processes:                80
     Threads/MPI process:                     1

     MPI processes distributed on     1 nodes
     3057902 MiB available memory on the printing compute node when the environment starts
 
     Waiting for input...
     Reading input from standard input

     Current dimensions of program PWSCF are:
     Max number of different atomic species (ntypx) = 10
     Max number of k-points (npk) =  40000
     Max angular momentum in pseudopotentials (lmaxx) =  4
     Message from routine setup:
     using ibrav=0 with symmetry is DISCOURAGED, use correct ibrav instead
 
     K-points division:     npool     =      20
     R & G space division:  proc/nbgrp/npool/nimage =       4
     Subspace diagonalization in iterative solution of the eigenvalue problem:
     a serial algorithm will be used

 
     Parallelization info
     --------------------
     sticks:   dense  smooth     PW     G-vecs:    dense   smooth      PW
     Min         749     299     88                31071     7857    1259
     Max         750     301     90                31076     7861    1262
     Sum        2997    1201    357               124289    31439    5041
 
     Using Slab Decomposition
 


     bravais-lattice index     =            0
     lattice parameter (alat)  =       7.3562  a.u.
     unit-cell volume          =     398.0737 (a.u.)^3
     number of atoms/cell      =            5
     number of atomic types    =            3
     number of electrons       =        40.00
     number of Kohn-Sham states=           20
     kinetic-energy cutoff     =      70.0000  Ry
     charge density cutoff     =     700.0000  Ry
     scf convergence threshold =      1.0E-08
     mixing beta               =       0.7000
     number of iterations used =            8  plain     mixing
     energy convergence thresh.=      1.0E-04
     force convergence thresh. =      1.0E-03
     press convergence thresh. =      5.0E-01
     Exchange-correlation= SLA  PW   PBE  PBE
                           (   1   4   3   4   0   0   0)
     nstep                     =           50


     celldm(1)=   7.356216  celldm(2)=   0.000000  celldm(3)=   0.000000
     celldm(4)=   0.000000  celldm(5)=   0.000000  celldm(6)=   0.000000

     crystal axes: (cart. coord. in units of alat)
               a(1) = (   1.000000   0.000000   0.000000 )  
               a(2) = (   0.000000   1.000000   0.000000 )  
               a(3) = (   0.000000   0.000000   1.000000 )  

     reciprocal axes: (cart. coord. in units 2 pi/alat)
               b(1) = (  1.000000  0.000000  0.000000 )  
               b(2) = (  0.000000  1.000000  0.000000 )  
               b(3) = (  0.000000  0.000000  1.000000 )  


     PseudoPot. # 1 for Sr read from file:
     /home/m0049/m004905/PSPOT/sr_pbe_v1.uspp.F.UPF
     MD5 check sum: 6b418c05fbe9db5448babca5e47b7a5b
     Pseudo is Ultrasoft + core correction, Zval = 10.0
     Generated by new atomic code, or converted to UPF format
     Using radial grid of  883 points,  6 beta functions with: 
                l(1) =   0
                l(2) =   0
                l(3) =   1
                l(4) =   1
                l(5) =   2
                l(6) =   2
     Q(r) pseudized with  6 coefficients,  rinner =    1.400   1.400   1.400
                                                       1.400   1.400

     PseudoPot. # 2 for Ti read from file:
     /home/m0049/m004905/PSPOT/ti_pbe_v1.4.uspp.F.UPF
     MD5 check sum: 88a00a6731bd790ddea75d31a80cb452
     Pseudo is Ultrasoft + core correction, Zval = 12.0
     Generated by new atomic code, or converted to UPF format
     Using radial grid of  851 points,  6 beta functions with: 
                l(1) =   0
                l(2) =   0
                l(3) =   1
                l(4) =   1
                l(5) =   2
                l(6) =   2
     Q(r) pseudized with  6 coefficients,  rinner =    1.000   1.000   1.000
                                                       1.000   1.000

     PseudoPot. # 3 for O  read from file:
     /home/m0049/m004905/PSPOT/o_pbe_v1.2.uspp.F.UPF
     MD5 check sum: 734c27235a0248c51dbae37a1fbe46ec
     Pseudo is Ultrasoft + core correction, Zval =  6.0
     Generated by new atomic code, or converted to UPF format
     Using radial grid of  737 points,  5 beta functions with: 
                l(1) =   0
                l(2) =   0
                l(3) =   1
                l(4) =   1
                l(5) =   2
     Q(r) pseudized with  8 coefficients,  rinner =    0.900   0.900   0.900
                                                       0.900   0.900

     atomic species   valence    mass     pseudopotential
     Sr               10.00    87.62000     Sr( 1.00)
     Ti               12.00    47.86700     Ti( 1.00)
     O                 6.00    15.99900     O ( 1.00)

     48 Sym. Ops., with inversion, found



   Cartesian axes

     site n.     atom                  positions (alat units)
         1        Sr     tau(   1) = (   0.0000000   0.0000000   0.0000000  )
         2        Ti     tau(   2) = (   0.5000000   0.5000000   0.5000000  )
         3        O      tau(   3) = (   0.5000000   0.5000000   0.0000000  )
         4        O      tau(   4) = (   0.5000000   0.0000000   0.5000000  )
         5        O      tau(   5) = (   0.0000000   0.5000000   0.5000000  )

     number of k points=    56
                       cart. coord. in units 2pi/alat
        k(    1) = (   0.0000000   0.0000000   0.0000000), wk =   0.0020000
        k(    2) = (   0.0000000   0.0000000   0.1000000), wk =   0.0120000
        k(    3) = (   0.0000000   0.0000000   0.2000000), wk =   0.0120000
        k(    4) = (   0.0000000   0.0000000   0.3000000), wk =   0.0120000
        k(    5) = (   0.0000000   0.0000000   0.4000000), wk =   0.0120000
        k(    6) = (   0.0000000   0.0000000  -0.5000000), wk =   0.0060000
        k(    7) = (   0.0000000   0.1000000   0.1000000), wk =   0.0240000
        k(    8) = (   0.0000000   0.1000000   0.2000000), wk =   0.0480000
        k(    9) = (   0.0000000   0.1000000   0.3000000), wk =   0.0480000
        k(   10) = (   0.0000000   0.1000000   0.4000000), wk =   0.0480000
        k(   11) = (   0.0000000   0.1000000  -0.5000000), wk =   0.0240000
        k(   12) = (   0.0000000   0.2000000   0.2000000), wk =   0.0240000
        k(   13) = (   0.0000000   0.2000000   0.3000000), wk =   0.0480000
        k(   14) = (   0.0000000   0.2000000   0.4000000), wk =   0.0480000
        k(   15) = (   0.0000000   0.2000000  -0.5000000), wk =   0.0240000
        k(   16) = (   0.0000000   0.3000000   0.3000000), wk =   0.0240000
        k(   17) = (   0.0000000   0.3000000   0.4000000), wk =   0.0480000
        k(   18) = (   0.0000000   0.3000000  -0.5000000), wk =   0.0240000
        k(   19) = (   0.0000000   0.4000000   0.4000000), wk =   0.0240000
        k(   20) = (   0.0000000   0.4000000  -0.5000000), wk =   0.0240000
        k(   21) = (   0.0000000  -0.5000000  -0.5000000), wk =   0.0060000
        k(   22) = (   0.1000000   0.1000000   0.1000000), wk =   0.0160000
        k(   23) = (   0.1000000   0.1000000   0.2000000), wk =   0.0480000
        k(   24) = (   0.1000000   0.1000000   0.3000000), wk =   0.0480000
        k(   25) = (   0.1000000   0.1000000   0.4000000), wk =   0.0480000
        k(   26) = (   0.1000000   0.1000000  -0.5000000), wk =   0.0240000
        k(   27) = (   0.1000000   0.2000000   0.2000000), wk =   0.0480000
        k(   28) = (   0.1000000   0.2000000   0.3000000), wk =   0.0960000
        k(   29) = (   0.1000000   0.2000000   0.4000000), wk =   0.0960000
        k(   30) = (   0.1000000   0.2000000  -0.5000000), wk =   0.0480000
        k(   31) = (   0.1000000   0.3000000   0.3000000), wk =   0.0480000
        k(   32) = (   0.1000000   0.3000000   0.4000000), wk =   0.0960000
        k(   33) = (   0.1000000   0.3000000  -0.5000000), wk =   0.0480000
        k(   34) = (   0.1000000   0.4000000   0.4000000), wk =   0.0480000
        k(   35) = (   0.1000000   0.4000000  -0.5000000), wk =   0.0480000
        k(   36) = (   0.1000000  -0.5000000  -0.5000000), wk =   0.0120000
        k(   37) = (   0.2000000   0.2000000   0.2000000), wk =   0.0160000
        k(   38) = (   0.2000000   0.2000000   0.3000000), wk =   0.0480000
        k(   39) = (   0.2000000   0.2000000   0.4000000), wk =   0.0480000
        k(   40) = (   0.2000000   0.2000000  -0.5000000), wk =   0.0240000
        k(   41) = (   0.2000000   0.3000000   0.3000000), wk =   0.0480000
        k(   42) = (   0.2000000   0.3000000   0.4000000), wk =   0.0960000
        k(   43) = (   0.2000000   0.3000000  -0.5000000), wk =   0.0480000
        k(   44) = (   0.2000000   0.4000000   0.4000000), wk =   0.0480000
        k(   45) = (   0.2000000   0.4000000  -0.5000000), wk =   0.0480000
        k(   46) = (   0.2000000  -0.5000000  -0.5000000), wk =   0.0120000
        k(   47) = (   0.3000000   0.3000000   0.3000000), wk =   0.0160000
        k(   48) = (   0.3000000   0.3000000   0.4000000), wk =   0.0480000
        k(   49) = (   0.3000000   0.3000000  -0.5000000), wk =   0.0240000
        k(   50) = (   0.3000000   0.4000000   0.4000000), wk =   0.0480000
        k(   51) = (   0.3000000   0.4000000  -0.5000000), wk =   0.0480000
        k(   52) = (   0.3000000  -0.5000000  -0.5000000), wk =   0.0120000
        k(   53) = (   0.4000000   0.4000000   0.4000000), wk =   0.0160000
        k(   54) = (   0.4000000   0.4000000  -0.5000000), wk =   0.0240000
        k(   55) = (   0.4000000  -0.5000000  -0.5000000), wk =   0.0120000
        k(   56) = (  -0.5000000  -0.5000000  -0.5000000), wk =   0.0020000

     Dense  grid:   124289 G-vectors     FFT dimensions: (  64,  64,  64)

     Smooth grid:    31439 G-vectors     FFT dimensions: (  40,  40,  40)

     Estimated max dynamical RAM per process >      39.19 MB

     Estimated total dynamical RAM >       2.50 GB

     Check: negative core charge=   -0.000002

     Initial potential from superposition of free atoms

     starting charge      38.9663, renormalised to      40.0000

     negative rho (up, down):  6.666E-02 0.000E+00
     Starting wfcs are   35 randomized atomic wfcs

     total cpu time spent up to now is       11.3 secs

     Self-consistent Calculation

     iteration #  1     ecut=    70.00 Ry     beta= 0.70
     Davidson diagonalization with overlap
     ethr =  1.00E-02,  avg # of iterations =  1.6

     negative rho (up, down):  6.564E-02 0.000E+00

     total cpu time spent up to now is       13.6 secs

     total energy              =    -286.50196949 Ry
     estimated scf accuracy    <       0.99400906 Ry

     iteration #  2     ecut=    70.00 Ry     beta= 0.70
     Davidson diagonalization with overlap
     ethr =  2.49E-03,  avg # of iterations =  5.7

     negative rho (up, down):  6.513E-02 0.000E+00

     total cpu time spent up to now is       20.5 secs

     total energy              =    -285.55616375 Ry
     estimated scf accuracy    <       8.64990779 Ry

     iteration #  3     ecut=    70.00 Ry     beta= 0.70
     Davidson diagonalization with overlap
     ethr =  2.49E-03,  avg # of iterations =  5.3

     negative rho (up, down):  6.661E-02 0.000E+00

     total cpu time spent up to now is       20.7 secs

     total energy              =    -286.99995444 Ry
     estimated scf accuracy    <       0.24021099 Ry

     iteration #  4     ecut=    70.00 Ry     beta= 0.70
     Davidson diagonalization with overlap
     ethr =  6.01E-04,  avg # of iterations =  2.1

     negative rho (up, down):  6.735E-02 0.000E+00

     total cpu time spent up to now is       21.4 secs

     total energy              =    -286.99658764 Ry
     estimated scf accuracy    <       0.09606966 Ry

     iteration #  5     ecut=    70.00 Ry     beta= 0.70
     Davidson diagonalization with overlap
     ethr =  2.40E-04,  avg # of iterations =  3.8

     negative rho (up, down):  6.746E-02 0.000E+00

     total cpu time spent up to now is       21.6 secs

     total energy              =    -287.01159479 Ry
     estimated scf accuracy    <       0.00221929 Ry

     iteration #  6     ecut=    70.00 Ry     beta= 0.70
     Davidson diagonalization with overlap
     ethr =  5.55E-06,  avg # of iterations =  4.5

     negative rho (up, down):  6.747E-02 0.000E+00

     total cpu time spent up to now is       21.7 secs

     total energy              =    -287.01323960 Ry
     estimated scf accuracy    <       0.00177274 Ry

     iteration #  7     ecut=    70.00 Ry     beta= 0.70
     Davidson diagonalization with overlap
     ethr =  4.43E-06,  avg # of iterations =  2.4

     negative rho (up, down):  6.746E-02 0.000E+00

     total cpu time spent up to now is       21.9 secs

     total energy              =    -287.01326261 Ry
     estimated scf accuracy    <       0.00030152 Ry

     iteration #  8     ecut=    70.00 Ry     beta= 0.70
     Davidson diagonalization with overlap
     ethr =  7.54E-07,  avg # of iterations =  4.2

     negative rho (up, down):  6.746E-02 0.000E+00

     total cpu time spent up to now is       22.1 secs

     total energy              =    -287.01338034 Ry
     estimated scf accuracy    <       0.00015893 Ry

     iteration #  9     ecut=    70.00 Ry     beta= 0.70
     Davidson diagonalization with overlap
     ethr =  3.97E-07,  avg # of iterations =  3.8

     negative rho (up, down):  6.746E-02 0.000E+00

     total cpu time spent up to now is       22.2 secs

     total energy              =    -287.01340946 Ry
     estimated scf accuracy    <       0.00000031 Ry

     iteration # 10     ecut=    70.00 Ry     beta= 0.70
     Davidson diagonalization with overlap
     ethr =  7.69E-10,  avg # of iterations =  5.6

     negative rho (up, down):  6.746E-02 0.000E+00

     total cpu time spent up to now is       22.5 secs

     total energy              =    -287.01341067 Ry
     estimated scf accuracy    <       0.00000015 Ry

     iteration # 11     ecut=    70.00 Ry     beta= 0.70
     Davidson diagonalization with overlap
     ethr =  3.70E-10,  avg # of iterations =  4.1

     negative rho (up, down):  6.745E-02 0.000E+00

     total cpu time spent up to now is       22.6 secs

     total energy              =    -287.01341072 Ry
     estimated scf accuracy    <       0.00000006 Ry

     iteration # 12     ecut=    70.00 Ry     beta= 0.70
     Davidson diagonalization with overlap
     ethr =  1.49E-10,  avg # of iterations =  2.3

     negative rho (up, down):  6.745E-02 0.000E+00

     total cpu time spent up to now is       22.8 secs

     total energy              =    -287.01341072 Ry
     estimated scf accuracy    <       0.00000001 Ry

     iteration # 13     ecut=    70.00 Ry     beta= 0.70
     Davidson diagonalization with overlap
     ethr =  3.43E-11,  avg # of iterations =  4.1

     negative rho (up, down):  6.745E-02 0.000E+00

     total cpu time spent up to now is       22.9 secs

     End of self-consistent calculation

          k = 0.0000 0.0000 0.0000 (  3887 PWs)   bands (ev):

   -46.1734 -22.4955 -22.4459 -22.4459 -22.4459  -7.2216  -6.2247  -6.2247
    -4.4941  -4.4941  -4.4941   7.3724   7.3724   7.3724   9.0049   9.0049
     9.0049   9.8513   9.8513   9.8513

          k = 0.0000 0.0000 0.1000 (  3911 PWs)   bands (ev):

   -46.1733 -22.5150 -22.4456 -22.4456 -22.4310  -7.2240  -6.2303  -6.2208
    -4.4894  -4.4894  -4.4224   7.2383   7.3646   7.3646   8.8707   8.8707
     8.9138   9.5288   9.7823   9.7823

          k = 0.0000 0.0000 0.2000 (  3911 PWs)   bands (ev):

   -46.1730 -22.5494 -22.4448 -22.4448 -22.4084  -7.2577  -6.2107  -6.1949
    -4.4771  -4.4771  -4.2536   6.8776   7.3464   7.3464   8.5476   8.5476
     8.6916   8.8564   9.6619   9.6619

          k = 0.0000 0.0000 0.3000 (  3940 PWs)   bands (ev):

   -46.1726 -22.5825 -22.4438 -22.4438 -22.3897  -7.3380  -6.1981  -6.0764
    -4.4618  -4.4618  -4.0721   6.4078   7.3318   7.3318   8.1947   8.1947
     8.2347   8.4429   9.5606   9.5606

          k = 0.0000 0.0000 0.4000 (  3948 PWs)   bands (ev):

   -46.1724 -22.6063 -22.4430 -22.4430 -22.3774  -7.4187  -6.1878  -5.9402
    -4.4493  -4.4493  -3.9416   6.0087   7.3341   7.3341   7.8389   7.9277
     7.9277   8.2583   9.4947   9.4947

          k = 0.0000 0.0000-0.5000 (  3948 PWs)   bands (ev):

   -46.1723 -22.6149 -22.4427 -22.4427 -22.3731  -7.4513  -6.1838  -5.8811
    -4.4445  -4.4445  -3.8951   5.8527   7.3424   7.3424   7.7059   7.8243
     7.8243   8.1910   9.4720   9.4720

          k = 0.0000 0.1000 0.1000 (  3906 PWs)   bands (ev):

   -46.1732 -22.5248 -22.4526 -22.4453 -22.4185  -7.2188  -6.2399  -6.2171
    -4.4846  -4.4525  -4.3899   7.1414   7.3194   7.3572   8.5790   8.7551
     9.0120   9.3977   9.5890   9.6980

          k = 0.0000 0.1000 0.2000 (  3924 PWs)   bands (ev):

   -46.1729 -22.5498 -22.4553 -22.4445 -22.4020  -7.2330  -6.2321  -6.1913
    -4.4721  -4.4301  -4.2474   6.8228   7.2540   7.3401   8.1543   8.4642
     8.8023   9.0140   9.4472   9.5508

          k = 0.0000 0.1000 0.3000 (  3946 PWs)   bands (ev):

   -46.1725 -22.5785 -22.4534 -22.4435 -22.3889  -7.2941  -6.1973  -6.1077
    -4.4564  -4.4158  -4.0822   6.3841   7.1820   7.3268   7.7085   8.1324
     8.3622   8.8468   9.3389   9.4319

          k = 0.0000 0.1000 0.4000 (  3939 PWs)   bands (ev):

   -46.1723 -22.6003 -22.4508 -22.4427 -22.3805  -7.3643  -6.1771  -5.9892
    -4.4437  -4.4043  -3.9628   5.9997   7.1200   7.3310   7.3846   7.8745
     8.1131   8.7110   9.2654   9.3580

          k = 0.0000 0.1000-0.5000 (  3948 PWs)   bands (ev):

   -46.1721 -22.6084 -22.4498 -22.4424 -22.3776  -7.3937  -6.1700  -5.9358
    -4.4388  -4.3996  -3.9203   5.8469   7.0942   7.2726   7.3411   7.7726
     8.0342   8.6592   9.2393   9.3329

          k = 0.0000 0.2000 0.2000 (  3934 PWs)   bands (ev):

   -46.1726 -22.5547 -22.4701 -22.4437 -22.3939  -7.1893  -6.2760  -6.1557
    -4.4589  -4.3456  -4.2060   6.6275   7.0608   7.3252   7.6483   8.2424
     8.6949   8.9408   9.3421   9.3506

          k = 0.0000 0.2000 0.3000 (  3952 PWs)   bands (ev):

   -46.1723 -22.5684 -22.4743 -22.4427 -22.3903  -7.1838  -6.2560  -6.1103
    -4.4424  -4.3104  -4.1037   6.2973   6.8380   7.2030   7.3144   7.9671
     8.4127   8.8876   9.1709   9.3586

          k = 0.0000 0.2000 0.4000 (  3941 PWs)   bands (ev):

   -46.1720 -22.5836 -22.4706 -22.4419 -22.3902  -7.2146  -6.1853  -6.0760
    -4.4291  -4.2986  -4.0135   5.9706   6.5646   7.0271   7.3223   7.7374
     8.2532   8.8590   9.0684   9.3147

          k = 0.0000 0.2000-0.5000 (  3954 PWs)   bands (ev):

   -46.1719 -22.5900 -22.4681 -22.4416 -22.3906  -7.2324  -6.1456  -6.0662
    -4.4239  -4.2942  -3.9801   5.8311   6.4525   6.9905   7.3368   7.6406
     8.2045   8.8480   9.0347   9.2892

          k = 0.0000 0.3000 0.3000 (  3944 PWs)   bands (ev):

   -46.1719 -22.5594 -22.4917 -22.4418 -22.3969  -7.0678  -6.3148  -6.0867
    -4.4250  -4.2151  -4.1061   6.0997   6.5826   6.6390   7.3039   7.7562
     8.3910   8.7356   8.9378   9.6160

          k = 0.0000 0.3000 0.4000 (  3936 PWs)   bands (ev):

   -46.1716 -22.5599 -22.4938 -22.4410 -22.4062  -7.0091  -6.2815  -6.1030
    -4.4108  -4.1854  -4.0620   5.8852   6.1355   6.5156   7.3108   7.5701
     8.3885   8.6825   8.7932   9.7311

          k = 0.0000 0.3000-0.5000 (  3950 PWs)   bands (ev):

   -46.1715 -22.5627 -22.4907 -22.4407 -22.4112  -6.9988  -6.2091  -6.1556
    -4.4054  -4.1809  -4.0373   5.8031   5.9458   6.4964   7.3289   7.4838
     8.4031   8.6568   8.7454   9.7596

          k = 0.0000 0.4000 0.4000 (  3958 PWs)   bands (ev):

   -46.1713 -22.5382 -22.5091 -22.4402 -22.4253  -6.8177  -6.3426  -6.1631
    -4.3959  -4.1095  -4.0791   5.6975   5.8935   6.1499   7.3071   7.4294
     8.4994   8.6130   8.6446   9.9573

          k = 0.0000 0.4000-0.5000 (  3946 PWs)   bands (ev):

   -46.1712 -22.5327 -22.5088 -22.4399 -22.4357  -6.7398  -6.3142  -6.2430
    -4.3902  -4.0986  -4.0643   5.6228   5.7322   6.0906   7.3199   7.3614
     8.5518   8.5625   8.6220  10.0250

          k = 0.0000-0.5000-0.5000 (  3932 PWs)   bands (ev):

   -46.1711 -22.5157 -22.5157 -22.4506 -22.4396  -6.5681  -6.3525  -6.3525
    -4.3844  -4.0688  -4.0688   5.5119   5.6540   5.9826   7.3157   7.3157
     8.4851   8.6233   8.6233  10.1071

          k = 0.1000 0.1000 0.1000 (  3902 PWs)   bands (ev):

   -46.1731 -22.5309 -22.4523 -22.4523 -22.4097  -7.2077  -6.2319  -6.2319
    -4.4545  -4.4545  -4.3519   7.0418   7.3141   7.3141   8.4927   8.4927
     9.1073   9.2123   9.5487   9.5487

          k = 0.1000 0.1000 0.2000 (  3924 PWs)   bands (ev):

   -46.1728 -22.5496 -22.4574 -22.4515 -22.3974  -7.2055  -6.2254  -6.2109
    -4.4600  -4.4113  -4.2314   6.7566   7.2099   7.3015   8.0945   8.1715
     8.8269   9.0891   9.3375   9.4477

          k = 0.1000 0.1000 0.3000 (  3933 PWs)   bands (ev):

   -46.1724 -22.5744 -22.4553 -22.4505 -22.3884  -7.2496  -6.1844  -6.1406
    -4.4673  -4.3729  -4.0887   6.3571   7.0812   7.2914   7.6822   7.7432
     8.6186   8.9499   9.1609   9.3455

          k = 0.1000 0.1000 0.4000 (  3949 PWs)   bands (ev):

   -46.1721 -22.5946 -22.4514 -22.4496 -22.3833  -7.3097  -6.1625  -6.0271
    -4.4737  -4.3428  -3.9849   5.9909   6.9836   7.3008   7.3246   7.4949
     8.5439   8.8052   9.0302   9.2782

          k = 0.1000 0.1000-0.5000 (  3954 PWs)   bands (ev):

   -46.1720 -22.6022 -22.4496 -22.4493 -22.3817  -7.3361  -6.1540  -5.9759
    -4.4763  -4.3310  -3.9478   5.8418   6.9533   7.1969   7.3518   7.3611
     8.5279   8.7466   8.9794   9.2548

          k = 0.1000 0.2000 0.2000 (  3936 PWs)   bands (ev):

   -46.1725 -22.5526 -22.4698 -22.4526 -22.3918  -7.1536  -6.2588  -6.1772
    -4.4515  -4.3637  -4.1753   6.5589   7.0600   7.2516   7.6544   7.9936
     8.5031   9.1271   9.2706   9.3331

          k = 0.1000 0.2000 0.3000 (  3946 PWs)   bands (ev):

   -46.1721 -22.5643 -22.4741 -22.4512 -22.3905  -7.1369  -6.2358  -6.1279
    -4.4627  -4.3081  -4.0968   6.2650   6.8187   7.2195   7.2257   7.6856
     8.3878   8.9787   9.1458   9.3559

          k = 0.1000 0.2000 0.4000 (  3931 PWs)   bands (ev):

   -46.1719 -22.5785 -22.4703 -22.4496 -22.3924  -7.1596  -6.1638  -6.0887
    -4.4795  -4.2614  -4.0362   5.9633   6.5551   7.0146   7.2260   7.4280
     8.4477   8.7841   9.0837   9.3178

          k = 0.1000 0.2000-0.5000 (  3948 PWs)   bands (ev):

   -46.1718 -22.5846 -22.4678 -22.4487 -22.3938  -7.1748  -6.1233  -6.0767
    -4.4869  -4.2427  -4.0145   5.8282   6.4541   6.9645   7.2630   7.2995
     8.5474   8.6410   9.0625   9.2945

          k = 0.1000 0.3000 0.3000 (  3946 PWs)   bands (ev):

   -46.1718 -22.5552 -22.4914 -22.4500 -22.3977  -7.0169  -6.2883  -6.0885
    -4.4568  -4.2511  -4.0904   6.0855   6.5851   6.6719   7.1744   7.5466
     8.2227   8.9451   8.9490   9.6169

          k = 0.1000 0.3000 0.4000 (  3937 PWs)   bands (ev):

   -46.1715 -22.5559 -22.4934 -22.4485 -22.4075  -6.9536  -6.2555  -6.0889
    -4.4621  -4.1992  -4.0814   5.8914   6.1679   6.5224   7.1690   7.3604
     8.2585   8.7883   8.9227   9.7337

          k = 0.1000 0.3000-0.5000 (  3938 PWs)   bands (ev):

   -46.1714 -22.5588 -22.4903 -22.4477 -22.4129  -6.9413  -6.1942  -6.1247
    -4.4661  -4.1737  -4.0808   5.8035   5.9959   6.4993   7.2266   7.2280
     8.3044   8.7179   8.9090   9.7629

          k = 0.1000 0.4000 0.4000 (  3944 PWs)   bands (ev):

   -46.1712 -22.5354 -22.5087 -22.4475 -22.4255  -6.7610  -6.3099  -6.1348
    -4.4438  -4.1586  -4.1026   5.7461   5.9187   6.1520   7.1516   7.2611
     8.2096   8.7958   8.8624   9.9626

          k = 0.1000 0.4000-0.5000 (  3940 PWs)   bands (ev):

   -46.1711 -22.5308 -22.5085 -22.4469 -22.4354  -6.6819  -6.2843  -6.2054
    -4.4368  -4.1345  -4.1154   5.7016   5.7362   6.0932   7.1807   7.1836
     8.2017   8.8021   8.8487  10.0316

          k = 0.1000-0.5000-0.5000 (  3928 PWs)   bands (ev):

   -46.1710 -22.5153 -22.5153 -22.4488 -22.4466  -6.5046  -6.3177  -6.3177
    -4.4233  -4.1227  -4.1227   5.6008   5.6588   5.9843   7.1637   7.1637
     8.1690   8.8389   8.8389  10.1153

          k = 0.2000 0.2000 0.2000 (  3956 PWs)   bands (ev):

   -46.1722 -22.5497 -22.4689 -22.4689 -22.3905  -7.0745  -6.2120  -6.2120
    -4.4131  -4.4131  -4.1175   6.3888   7.0552   7.0552   7.6072   7.6072
     8.0055   9.2321   9.2321   9.3854

          k = 0.2000 0.2000 0.3000 (  3924 PWs)   bands (ev):

   -46.1719 -22.5540 -22.4762 -22.4678 -22.3936  -7.0171  -6.2006  -6.1499
    -4.4785  -4.3372  -4.0803   6.1758   6.7519   7.0323   7.2174   7.3086
     7.8847   9.1737   9.2065   9.4447

          k = 0.2000 0.2000 0.4000 (  3914 PWs)   bands (ev):

   -46.1716 -22.5645 -22.4714 -22.4670 -22.3998  -7.0089  -6.1419  -6.0957
    -4.5358  -4.2477  -4.0821   5.9422   6.4598   6.9427   6.9614   7.1780
     7.9421   9.1257   9.1580   9.4213

          k = 0.2000 0.2000-0.5000 (  3936 PWs)   bands (ev):

   -46.1715 -22.5697 -22.4673 -22.4666 -22.4032  -7.0140  -6.1086  -6.0738
    -4.5588  -4.1962  -4.1008   5.8203   6.3669   6.8606   6.9157   7.1559
     7.9736   9.1090   9.1311   9.4002

          k = 0.2000 0.3000 0.3000 (  3927 PWs)   bands (ev):

   -46.1715 -22.5441 -22.4904 -22.4696 -22.4016  -6.8832  -6.2142  -6.0967
    -4.4974  -4.3501  -4.0843   6.0505   6.5918   6.7553   6.9179   7.1971
     7.5790   9.1711   9.2679   9.6454

          k = 0.2000 0.3000 0.4000 (  3937 PWs)   bands (ev):

   -46.1712 -22.5449 -22.4924 -22.4676 -22.4122  -6.8024  -6.1884  -6.0536
    -4.5517  -4.2846  -4.1255   5.9018   6.2439   6.5468   6.8722   7.0439
     7.5859   9.1686   9.2614   9.7533

          k = 0.2000 0.3000-0.5000 (  3930 PWs)   bands (ev):

   -46.1711 -22.5481 -22.4894 -22.4659 -22.4179  -6.7819  -6.1561  -6.0467
    -4.5782  -4.1999  -4.1955   5.8038   6.1151   6.5059   6.8560   6.9875
     7.6075   9.1832   9.2357   9.7813

          k = 0.2000 0.4000 0.4000 (  3940 PWs)   bands (ev):

   -46.1710 -22.5279 -22.5077 -22.4661 -22.4268  -6.6073  -6.2169  -6.0609
    -4.5493  -4.2944  -4.1823   5.8199   6.0367   6.1577   6.8618   6.9619
     7.4870   9.2137   9.2864   9.9791

          k = 0.2000 0.4000-0.5000 (  3942 PWs)   bands (ev):

   -46.1708 -22.5257 -22.5075 -22.4650 -22.4348  -6.5240  -6.2002  -6.1020
    -4.5492  -4.2551  -4.2419   5.7451   5.9071   6.1004   6.8762   6.9116
     7.4723   9.2555   9.2707  10.0501

          k = 0.2000-0.5000-0.5000 (  3940 PWs)   bands (ev):

   -46.1707 -22.5143 -22.5143 -22.4647 -22.4440  -6.3337  -6.2182  -6.2182
    -4.5230  -4.2719  -4.2719   5.6688   5.8332   5.9888   6.8866   6.8866
     7.4367   9.2853   9.2853  10.1370

          k = 0.3000 0.3000 0.3000 (  3947 PWs)   bands (ev):

   -46.1712 -22.5315 -22.4892 -22.4892 -22.4099  -6.7202  -6.1104  -6.1104
    -4.4846  -4.4846  -4.1246   6.0055   6.6011   6.6011   6.8691   6.9058
     6.9058   9.4187   9.4187   9.7513

          k = 0.3000 0.3000 0.4000 (  3939 PWs)   bands (ev):

   -46.1709 -22.5299 -22.4928 -22.4883 -22.4202  -6.5971  -6.1154  -6.0123
    -4.6076  -4.4143  -4.2055   5.9052   6.2772   6.5531   6.6123   6.7192
     6.9911   9.4549   9.5709   9.8447

          k = 0.3000 0.3000-0.5000 (  3918 PWs)   bands (ev):

   -46.1708 -22.5333 -22.4886 -22.4879 -22.4257  -6.5553  -6.1124  -5.9700
    -4.6594  -4.3361  -4.2852   5.7969   6.2003   6.4648   6.6331   6.6394
     7.0302   9.4634   9.6187   9.8721

          k = 0.3000 0.4000 0.4000 (  3948 PWs)   bands (ev):

   -46.1706 -22.5182 -22.5065 -22.4885 -22.4294  -6.4006  -6.0816  -5.9787
    -4.6406  -4.4821  -4.3146   5.8472   6.1654   6.2313   6.5615   6.7062
     6.7694   9.6259   9.6808  10.0089

          k = 0.3000 0.4000-0.5000 (  3942 PWs)   bands (ev):

   -46.1705 -22.5193 -22.5062 -22.4873 -22.4340  -6.3077  -6.0817  -5.9691
    -4.6694  -4.4426  -4.4041   5.7449   6.1090   6.1581   6.5924   6.6222
     6.7803   9.6661   9.7223  10.0769

          k = 0.3000-0.5000-0.5000 (  3960 PWs)   bands (ev):

   -46.1704 -22.5131 -22.5131 -22.4870 -22.4380  -6.1118  -6.0715  -6.0715
    -4.6420  -4.4791  -4.4791   5.6677   5.9943   6.1208   6.6476   6.6476
     6.6616   9.7399   9.7399  10.1641

          k = 0.4000 0.4000 0.4000 (  3948 PWs)   bands (ev):

   -46.1703 -22.5106 -22.5055 -22.5055 -22.4321  -6.1983  -5.9450  -5.9450
    -4.6606  -4.6606  -4.4655   5.7910   6.1727   6.1727   6.3579   6.5432
     6.5432   9.9140   9.9140  10.0682

          k = 0.4000 0.4000-0.5000 (  3926 PWs)   bands (ev):

   -46.1702 -22.5141 -22.5054 -22.5051 -22.4334  -6.0855  -5.9686  -5.8820
    -4.7395  -4.6105  -4.5769   5.6915   6.0872   6.1759   6.3378   6.4873
     6.5562   9.9638  10.0162  10.1214

          k = 0.4000-0.5000-0.5000 (  3932 PWs)   bands (ev):

   -46.1701 -22.5120 -22.5120 -22.5049 -22.4332  -5.9223  -5.9196  -5.9196
    -4.7350  -4.6793  -4.6793   5.6155   5.9988   6.1429   6.3542   6.4954
     6.4954  10.0725  10.0725  10.1863

          k =-0.5000-0.5000-0.5000 (  3912 PWs)   bands (ev):

   -46.1700 -22.5117 -22.5117 -22.5117 -22.4313  -5.8473  -5.8473  -5.8473
    -4.7699  -4.7699  -4.7699   5.5493   6.0005   6.0005   6.4436   6.4436
     6.4436  10.1949  10.1949  10.1949

     highest occupied level (ev):    10.1949

!    total energy              =    -287.01341072 Ry
     estimated scf accuracy    <          9.6E-10 Ry

     The total energy is the sum of the following terms:
     one-electron contribution =     -75.94257270 Ry
     hartree contribution      =      60.63184956 Ry
     xc contribution           =     -58.52672701 Ry
     ewald contribution        =    -213.17596056 Ry

     convergence has been achieved in  13 iterations

     negative rho (up, down):  6.745E-02 0.000E+00

     Forces acting on atoms (cartesian axes, Ry/au):

     atom    1 type  1   force =     0.00000000    0.00000000    0.00000000
     atom    2 type  2   force =     0.00000000    0.00000000    0.00000000
     atom    3 type  3   force =     0.00000000    0.00000000    0.00000000
     atom    4 type  3   force =     0.00000000    0.00000000    0.00000000
     atom    5 type  3   force =     0.00000000    0.00000000    0.00000000

     Total force =     0.000000     Total SCF correction =     0.000000


     Computing stress (Cartesian axis) and pressure


     negative rho (up, down):  6.745E-02 0.000E+00
          total   stress  (Ry/bohr**3)                   (kbar)     P=       63.57
   0.00043217   0.00000000   0.00000000           63.57        0.00        0.00
   0.00000000   0.00043217   0.00000000            0.00       63.57        0.00
   0.00000000   0.00000000   0.00043217            0.00        0.00       63.57


     BFGS Geometry Optimization
     Energy error            =      5.4E-03 Ry
     Gradient error          =      2.6E-31 Ry/Bohr
     Cell gradient error     =      6.4E+01 kbar

     number of scf cycles    =   1
     number of bfgs steps    =   0

     enthalpy           new  =    -287.0134107226 Ry

     new trust radius        =       0.0431130229 bohr
     new conv_thr            =       0.0000000100 Ry

     new unit-cell volume =    411.11634 a.u.^3 (    60.92116 Ang^3 )
     density =      5.00126 g/cm^3

CELL_PARAMETERS (angstrom)
   3.934800456   0.000000000   0.000000000
   0.000000000   3.934800456   0.000000000
   0.000000000   0.000000000   3.934800456

ATOMIC_POSITIONS (crystal)
Sr               0.0000000000        0.0000000000        0.0000000000
Ti               0.5000000000        0.5000000000        0.5000000000
O                0.5000000000        0.5000000000        0.0000000000
O                0.5000000000        0.0000000000        0.5000000000
O                0.0000000000        0.5000000000        0.5000000000



     Writing config-only to output data dir ./out/SrTiO3.save/ :
     XML data file
     NEW-OLD atomic charge density approx. for the potential
     New effective cutoffs (rho, wfc):  684.04   68.51

     Check: negative core charge=   -0.000002

     negative rho (up, down):  6.764E-02 0.000E+00

     total cpu time spent up to now is       23.3 secs

     Self-consistent Calculation

     iteration #  1     ecut=    70.00 Ry     beta= 0.70
     Davidson diagonalization with overlap
     ethr =  1.00E-06,  avg # of iterations =  6.0

     negative rho (up, down):  6.760E-02 0.000E+00

     total cpu time spent up to now is       23.5 secs

     total energy              =    -287.01613346 Ry
     estimated scf accuracy    <       0.00005838 Ry

     iteration #  2     ecut=    70.00 Ry     beta= 0.70
     Davidson diagonalization with overlap
     ethr =  1.46E-07,  avg # of iterations =  3.0

     negative rho (up, down):  6.762E-02 0.000E+00

     total cpu time spent up to now is       23.6 secs

     total energy              =    -287.01631504 Ry
     estimated scf accuracy    <       0.00001018 Ry

     iteration #  3     ecut=    70.00 Ry     beta= 0.70
     Davidson diagonalization with overlap
     ethr =  2.55E-08,  avg # of iterations =  3.8

     negative rho (up, down):  6.763E-02 0.000E+00

     total cpu time spent up to now is       23.8 secs

     total energy              =    -287.01633249 Ry
     estimated scf accuracy    <       0.00000562 Ry

     iteration #  4     ecut=    70.00 Ry     beta= 0.70
     Davidson diagonalization with overlap
     ethr =  1.41E-08,  avg # of iterations =  4.0

     negative rho (up, down):  6.764E-02 0.000E+00

     total cpu time spent up to now is       24.0 secs

     total energy              =    -287.01633499 Ry
     estimated scf accuracy    <       0.00000178 Ry

     iteration #  5     ecut=    70.00 Ry     beta= 0.70
     Davidson diagonalization with overlap
     ethr =  4.44E-09,  avg # of iterations =  3.8

     negative rho (up, down):  6.764E-02 0.000E+00

     total cpu time spent up to now is       24.2 secs

     total energy              =    -287.01633544 Ry
     estimated scf accuracy    <       0.00000001 Ry

     iteration #  6     ecut=    70.00 Ry     beta= 0.70
     Davidson diagonalization with overlap
     ethr =  3.69E-11,  avg # of iterations =  5.0

     negative rho (up, down):  6.764E-02 0.000E+00

     total cpu time spent up to now is       24.4 secs

     total energy              =    -287.01633546 Ry
     estimated scf accuracy    <       0.00000003 Ry

     iteration #  7     ecut=    70.00 Ry     beta= 0.70
     Davidson diagonalization with overlap
     ethr =  3.69E-11,  avg # of iterations =  4.7

     negative rho (up, down):  6.764E-02 0.000E+00

     total cpu time spent up to now is       24.5 secs

     End of self-consistent calculation

          k = 0.0000 0.0000 0.0000 (  3887 PWs)   bands (ev):

   -46.7618 -23.0497 -23.0106 -23.0106 -23.0106  -7.5580  -6.5877  -6.5877
    -5.0371  -5.0371  -5.0371   6.9440   6.9440   6.9440   8.6060   8.6060
     8.6060   9.3800   9.3800   9.3800

          k = 0.0000 0.0000 0.0989 (  3911 PWs)   bands (ev):

   -46.7617 -23.0678 -23.0103 -23.0103 -22.9965  -7.5600  -6.5962  -6.5842
    -5.0330  -5.0330  -4.9692   6.8154   6.9390   6.9390   8.4772   8.4772
     8.5203   9.0687   9.3134   9.3134

          k = 0.0000 0.0000 0.1979 (  3911 PWs)   bands (ev):

   -46.7614 -23.0982 -23.0097 -23.0097 -22.9762  -7.5897  -6.5750  -6.5717
    -5.0222  -5.0222  -4.8102   6.4706   6.9287   6.9287   8.1640   8.1640
     8.3106   8.4213   9.1980   9.1980

          k = 0.0000 0.0000 0.2968 (  3940 PWs)   bands (ev):

   -46.7611 -23.1273 -23.0088 -23.0088 -22.9595  -7.6619  -6.5635  -6.4715
    -5.0087  -5.0087  -4.6407   6.0242   6.9251   6.9251   7.8187   7.8187
     7.8236   8.0751   9.1010   9.1010

          k = 0.0000 0.0000 0.3957 (  3948 PWs)   bands (ev):

   -46.7609 -23.1480 -23.0082 -23.0082 -22.9487  -7.7356  -6.5543  -6.3523
    -4.9978  -4.9978  -4.5196   5.6472   6.9382   6.9382   7.4427   7.5545
     7.5545   7.8999   9.0377   9.0377

          k = 0.0000 0.0000-0.4947 (  3948 PWs)   bands (ev):

   -46.7608 -23.1555 -23.0079 -23.0079 -22.9450  -7.7655  -6.5507  -6.3002
    -4.9936  -4.9936  -4.4766   5.5002   6.9517   6.9517   7.3148   7.4510
     7.4510   7.8360   9.0158   9.0158

          k = 0.0000 0.0989 0.0989 (  3906 PWs)   bands (ev):

   -46.7616 -23.0765 -23.0163 -23.0101 -22.9854  -7.5550  -6.6067  -6.5822
    -5.0288  -4.9962  -4.9402   6.7269   6.8934   6.9345   8.1962   8.3670
     8.6130   8.9407   9.1311   9.2313

          k = 0.0000 0.0989 0.1979 (  3924 PWs)   bands (ev):

   -46.7613 -23.0986 -23.0186 -23.0094 -22.9707  -7.5667  -6.6046  -6.5615
    -5.0178  -4.9758  -4.8055   6.4222   6.8377   6.9253   7.7787   8.0860
     8.3861   8.6046   8.9951   9.0887

          k = 0.0000 0.0989 0.2968 (  3946 PWs)   bands (ev):

   -46.7611 -23.1238 -23.0169 -23.0086 -22.9589  -7.6212  -6.5671  -6.4991
    -5.0041  -4.9637  -4.6503   6.0030   6.7839   6.9233   7.3340   7.7613
     7.9646   8.4516   8.8913   8.9742

          k = 0.0000 0.0989 0.3957 (  3939 PWs)   bands (ev):

   -46.7608 -23.1428 -23.0148 -23.0079 -22.9514  -7.6848  -6.5460  -6.3990
    -4.9929  -4.9539  -4.5389   5.6386   6.7463   6.9387   7.0030   7.5058
     7.7280   8.3204   8.8215   8.9029

          k = 0.0000 0.0989-0.4947 (  3948 PWs)   bands (ev):

   -46.7607 -23.1499 -23.0139 -23.0076 -22.9488  -7.7117  -6.5391  -6.3526
    -4.9887  -4.9498  -4.4994   5.4945   6.7411   6.8771   6.9542   7.4034
     7.6530   8.2698   8.7968   8.8786

          k = 0.0000 0.1979 0.1979 (  3934 PWs)   bands (ev):

   -46.7611 -23.1030 -23.0312 -23.0087 -22.9636  -7.5255  -6.6518  -6.5293
    -5.0063  -4.8925  -4.7690   6.2428   6.6509   6.9188   7.2771   7.8749
     8.2780   8.5285   8.8831   8.9215

          k = 0.0000 0.1979 0.2968 (  3952 PWs)   bands (ev):

   -46.7608 -23.1151 -23.0348 -23.0079 -22.9603  -7.5181  -6.6382  -6.4919
    -4.9919  -4.8608  -4.6711   5.9258   6.4593   6.8257   6.9201   7.6074
     8.0132   8.4708   8.7148   8.9352

          k = 0.0000 0.1979 0.3957 (  3941 PWs)   bands (ev):

   -46.7606 -23.1284 -23.0317 -23.0073 -22.9599  -7.5446  -6.5692  -6.4713
    -4.9803  -4.8514  -4.5849   5.6111   6.2272   6.6320   6.9403   7.3797
     7.8605   8.4410   8.6142   8.8958

          k = 0.0000 0.1979-0.4947 (  3954 PWs)   bands (ev):

   -46.7605 -23.1339 -23.0296 -23.0070 -22.9602  -7.5606  -6.5206  -6.4768
    -4.9758  -4.8479  -4.5532   5.4781   6.1256   6.5924   6.9610   7.2820
     7.8138   8.4295   8.5811   8.8725

          k = 0.0000 0.2968 0.2968 (  3944 PWs)   bands (ev):

   -46.7605 -23.1074 -23.0497 -23.0071 -22.9659  -7.4081  -6.7003  -6.4719
    -4.9768  -4.7684  -4.6735   5.7470   6.2059   6.2780   6.9232   7.4069
     7.9949   8.3192   8.4809   9.1855

          k = 0.0000 0.2968 0.3957 (  3936 PWs)   bands (ev):

   -46.7603 -23.1080 -23.0514 -23.0064 -22.9738  -7.3509  -6.6735  -6.4914
    -4.9645  -4.7424  -4.6288   5.5375   5.8046   6.1392   6.9444   7.2249
     7.9883   8.2676   8.3346   9.2970

          k = 0.0000 0.2968-0.4947 (  3950 PWs)   bands (ev):

   -46.7602 -23.1104 -23.0488 -23.0062 -22.9779  -7.3403  -6.6121  -6.5376
    -4.9598  -4.7391  -4.6044   5.4462   5.6390   6.1190   6.9703   7.1375
     7.9986   8.2447   8.2861   9.3248

          k = 0.0000 0.3957 0.3957 (  3958 PWs)   bands (ev):

   -46.7601 -23.0892 -23.0645 -23.0058 -22.9901  -7.1682  -6.7350  -6.5532
    -4.9517  -4.6697  -4.6438   5.3822   5.5363   5.8032   6.9569   7.0920
     8.0907   8.1473   8.2258   9.5149

          k = 0.0000 0.3957-0.4947 (  3946 PWs)   bands (ev):

   -46.7600 -23.0846 -23.0643 -23.0055 -22.9990  -7.0930  -6.7113  -6.6298
    -4.9468  -4.6605  -4.6282   5.3291   5.3661   5.7456   6.9787   7.0245
     8.0826   8.1467   8.2048   9.5801

          k = 0.0000-0.4947-0.4947 (  3932 PWs)   bands (ev):

   -46.7599 -23.0702 -23.0702 -23.0117 -23.0053  -6.9193  -6.7473  -6.7473
    -4.9418  -4.6321  -4.6321   5.2227   5.2879   5.6475   6.9823   6.9823
     8.0108   8.2031   8.2031   9.6591

          k = 0.0989 0.0989 0.0989 (  3902 PWs)   bands (ev):

   -46.7615 -23.0820 -23.0160 -23.0160 -22.9778  -7.5447  -6.5992  -6.5992
    -4.9984  -4.9984  -4.9060   6.6363   6.8905   6.8905   8.1138   8.1138
     8.7041   8.7536   9.0940   9.0940

          k = 0.0989 0.0989 0.1979 (  3924 PWs)   bands (ev):

   -46.7613 -23.0985 -23.0203 -23.0154 -22.9668  -7.5414  -6.6014  -6.5793
    -5.0042  -4.9577  -4.7922   6.3641   6.7974   6.8846   7.7271   7.7916
     8.3934   8.6877   8.8890   8.9994

          k = 0.0989 0.0989 0.2968 (  3933 PWs)   bands (ev):

   -46.7610 -23.1203 -23.0186 -23.0145 -22.9586  -7.5798  -6.5542  -6.5329
    -5.0120  -4.9237  -4.6570   5.9793   6.6931   6.8849   7.3024   7.3820
     8.2063   8.5558   8.7141   8.9030

          k = 0.0989 0.0989 0.3957 (  3949 PWs)   bands (ev):

   -46.7607 -23.1379 -23.0152 -23.0138 -22.9539  -7.6340  -6.5334  -6.4355
    -5.0187  -4.8972  -4.5591   5.6304   6.6211   6.9068   6.9435   7.1328
     8.1357   8.4180   8.5856   8.8394

          k = 0.0989 0.0989-0.4947 (  3954 PWs)   bands (ev):

   -46.7606 -23.1445 -23.0137 -23.0135 -22.9524  -7.6580  -6.5254  -6.3909
    -5.0214  -4.8868  -4.5243   5.4894   6.6057   6.8096   6.9541   7.0068
     8.1200   8.3622   8.5358   8.8173

          k = 0.0989 0.1979 0.1979 (  3936 PWs)   bands (ev):

   -46.7610 -23.1013 -23.0310 -23.0162 -22.9618  -7.4927  -6.6353  -6.5516
    -4.9963  -4.9095  -4.7418   6.1824   6.6513   6.8435   7.2851   7.6290
     8.0738   8.7087   8.8301   8.9091

          k = 0.0989 0.1979 0.2968 (  3946 PWs)   bands (ev):

   -46.7607 -23.1116 -23.0346 -23.0151 -22.9605  -7.4749  -6.6200  -6.5091
    -5.0073  -4.8587  -4.6662   5.8980   6.4411   6.8267   6.8475   7.3241
     7.9711   8.5571   8.7151   8.9360

          k = 0.0989 0.1979 0.3957 (  3931 PWs)   bands (ev):

   -46.7605 -23.1240 -23.0314 -23.0137 -22.9618  -7.4937  -6.5523  -6.4811
    -5.0234  -4.8184  -4.6062   5.6045   6.2175   6.6262   6.8436   7.0650
     8.0291   8.3672   8.6582   8.9012

          k = 0.0989 0.1979-0.4947 (  3948 PWs)   bands (ev):

   -46.7604 -23.1293 -23.0293 -23.0130 -22.9629  -7.5070  -6.5007  -6.4868
    -5.0304  -4.8025  -4.5845   5.4751   6.1274   6.5726   6.9096   6.9127
     8.1150   8.2385   8.6383   8.8795

          k = 0.0989 0.2968 0.2968 (  3946 PWs)   bands (ev):

   -46.7604 -23.1038 -23.0494 -23.0141 -22.9666  -7.3615  -6.6750  -6.4745
    -5.0029  -4.8017  -4.6603   5.7339   6.2085   6.3097   6.7957   7.1948
     7.8002   8.5203   8.5319   9.1877

          k = 0.0989 0.2968 0.3957 (  3937 PWs)   bands (ev):

   -46.7602 -23.1045 -23.0511 -23.0129 -22.9749  -7.2999  -6.6494  -6.4781
    -5.0083  -4.7554  -4.6480   5.5407   5.8372   6.1462   6.8030   7.0094
     7.8250   8.3744   8.5052   9.3002

          k = 0.0989 0.2968-0.4947 (  3938 PWs)   bands (ev):

   -46.7601 -23.1070 -23.0485 -23.0121 -22.9794  -7.2873  -6.5980  -6.5090
    -5.0121  -4.7345  -4.6441   5.4463   5.6858   6.1220   6.8649   6.8772
     7.8627   8.3108   8.4926   9.3284

          k = 0.0989 0.3957 0.3957 (  3944 PWs)   bands (ev):

   -46.7600 -23.0869 -23.0642 -23.0120 -22.9903  -7.1164  -6.7039  -6.5266
    -4.9929  -4.7147  -4.6663   5.4150   5.5713   5.8053   6.7981   6.9171
     7.7594   8.3829   8.4455   9.5202

          k = 0.0989 0.3957-0.4947 (  3940 PWs)   bands (ev):

   -46.7599 -23.0830 -23.0640 -23.0115 -22.9988  -7.0401  -6.6829  -6.5943
    -4.9870  -4.6942  -4.6750   5.3695   5.4017   5.7480   6.8336   6.8398
     7.7457   8.3879   8.4326   9.5865

          k = 0.0989-0.4947-0.4947 (  3928 PWs)   bands (ev):

   -46.7598 -23.0698 -23.0698 -23.0112 -23.0101  -6.8615  -6.7143  -6.7143
    -4.9757  -4.6814  -4.6814   5.2919   5.3043   5.6491   6.8224   6.8224
     7.7079   8.4215   8.4215   9.6669

          k = 0.1979 0.1979 0.1979 (  3956 PWs)   bands (ev):

   -46.7608 -23.0988 -23.0302 -23.0302 -22.9606  -7.4195  -6.5905  -6.5905
    -4.9560  -4.9560  -4.6891   6.0269   6.6508   6.6508   7.2476   7.2476
     7.5719   8.8045   8.8045   8.9702

          k = 0.1979 0.1979 0.2968 (  3924 PWs)   bands (ev):

   -46.7605 -23.1027 -23.0364 -23.0293 -22.9632  -7.3641  -6.5898  -6.5309
    -5.0178  -4.8838  -4.6528   5.8193   6.3752   6.6413   6.8449   6.9433
     7.4727   8.7539   8.7804   9.0275

          k = 0.1979 0.1979 0.3957 (  3914 PWs)   bands (ev):

   -46.7603 -23.1119 -23.0323 -23.0286 -22.9682  -7.3535  -6.5444  -6.4786
    -5.0720  -4.8029  -4.6501   5.5849   6.1251   6.5621   6.6002   6.7874
     7.5300   8.7111   8.7337   9.0063

          k = 0.1979 0.1979-0.4947 (  3936 PWs)   bands (ev):

   -46.7602 -23.1164 -23.0288 -23.0283 -22.9711  -7.3571  -6.5170  -6.4575
    -5.0939  -4.7590  -4.6629   5.4662   6.0444   6.4783   6.5654   6.7558
     7.5597   8.6963   8.7081   8.9866

          k = 0.1979 0.2968 0.2968 (  3927 PWs)   bands (ev):

   -46.7602 -23.0943 -23.0486 -23.0308 -22.9700  -7.2387  -6.6042  -6.4857
    -5.0347  -4.8933  -4.6553   5.7008   6.2157   6.3861   6.5435   6.8450
     7.1666   8.7548   8.8442   9.2177

          k = 0.1979 0.2968 0.3957 (  3937 PWs)   bands (ev):

   -46.7600 -23.0950 -23.0503 -23.0291 -22.9790  -7.1604  -6.5870  -6.4458
    -5.0857  -4.8327  -4.6904   5.5453   5.9106   6.1713   6.5093   6.6821
     7.1738   8.7545   8.8392   9.3207

          k = 0.1979 0.2968-0.4947 (  3930 PWs)   bands (ev):

   -46.7599 -23.0978 -23.0477 -23.0277 -22.9838  -7.1398  -6.5617  -6.4378
    -5.1106  -4.7594  -4.7490   5.4451   5.7971   6.1287   6.5052   6.6142
     7.1950   8.7694   8.8149   9.3475

          k = 0.1979 0.3957 0.3957 (  3940 PWs)   bands (ev):

   -46.7597 -23.0805 -23.0634 -23.0278 -22.9915  -6.9759  -6.6154  -6.4579
    -5.0846  -4.8395  -4.7402   5.4571   5.7046   5.8109   6.5033   6.6112
     7.0651   8.7971   8.8638   9.5363

          k = 0.1979 0.3957-0.4947 (  3942 PWs)   bands (ev):

   -46.7597 -23.0786 -23.0631 -23.0270 -22.9982  -6.8958  -6.6029  -6.4973
    -5.0851  -4.8030  -4.7936   5.3757   5.5914   5.7544   6.5255   6.5559
     7.0485   8.8359   8.8492   9.6043

          k = 0.1979-0.4947-0.4947 (  3940 PWs)   bands (ev):

   -46.7596 -23.0690 -23.0690 -23.0267 -23.0060  -6.7061  -6.6197  -6.6197
    -5.0628  -4.8181  -4.8181   5.2988   5.5182   5.6534   6.5361   6.5361
     7.0087   8.8629   8.8629   9.6874

          k = 0.2968 0.2968 0.2968 (  3947 PWs)   bands (ev):

   -46.7599 -23.0835 -23.0476 -23.0476 -22.9771  -7.0873  -6.5048  -6.5048
    -5.0184  -5.0184  -4.6908   5.6528   6.2262   6.2262   6.4727   6.5531
     6.5531   8.9941   8.9941   9.3196

          k = 0.2968 0.2968 0.3957 (  3939 PWs)   bands (ev):

   -46.7597 -23.0822 -23.0506 -23.0468 -22.9858  -6.9701  -6.5180  -6.4105
    -5.1336  -4.9515  -4.7629   5.5398   5.9385   6.1756   6.2404   6.3633
     6.6194   9.0324   9.1396   9.4091

          k = 0.2968 0.2968-0.4947 (  3918 PWs)   bands (ev):

   -46.7596 -23.0852 -23.0470 -23.0465 -22.9904  -6.9288  -6.5198  -6.3697
    -5.1824  -4.8778  -4.8363   5.4329   5.8739   6.0857   6.2655   6.2791
     6.6555   9.0416   9.1852   9.4355

          k = 0.2968 0.3957 0.3957 (  3948 PWs)   bands (ev):

   -46.7595 -23.0722 -23.0624 -23.0470 -22.9936  -6.7857  -6.4865  -6.3832
    -5.1638  -5.0129  -4.8610   5.4667   5.8185   5.8927   6.1925   6.3512
     6.3967   9.1966   9.2476   9.5651

          k = 0.2968 0.3957-0.4947 (  3942 PWs)   bands (ev):

   -46.7594 -23.0732 -23.0621 -23.0460 -22.9975  -6.6965  -6.4901  -6.3742
    -5.1910  -4.9756  -4.9429   5.3685   5.7620   5.8235   6.2202   6.2667
     6.4103   9.2352   9.2876   9.6300

          k = 0.2968-0.4947-0.4947 (  3960 PWs)   bands (ev):

   -46.7593 -23.0680 -23.0680 -23.0457 -23.0009  -6.5049  -6.4802  -6.4802
    -5.1672  -5.0092  -5.0092   5.2904   5.6586   5.7835   6.2756   6.2910
     6.2910   9.3050   9.3050   9.7131

          k = 0.3957 0.3957 0.3957 (  3948 PWs)   bands (ev):

   -46.7592 -23.0658 -23.0615 -23.0615 -22.9959  -6.5974  -6.3560  -6.3560
    -5.1791  -5.1791  -4.9988   5.3958   5.8259   5.8259   6.0093   6.1852
     6.1852   9.4731   9.4731   9.6217

          k = 0.3957 0.3957-0.4947 (  3926 PWs)   bands (ev):

   -46.7591 -23.0688 -23.0614 -23.0612 -22.9970  -6.4897  -6.3823  -6.2955
    -5.2531  -5.1311  -5.1017   5.3029   5.7412   5.8293   5.9887   6.1282
     6.1963   9.5213   9.5707   9.6723

          k = 0.3957-0.4947-0.4947 (  3932 PWs)   bands (ev):

   -46.7591 -23.0671 -23.0671 -23.0610 -22.9968  -6.3355  -6.3355  -6.3339
    -5.2491  -5.1951  -5.1951   5.2274   5.6628   5.7957   5.9994   6.1351
     6.1351   9.6252   9.6252   9.7341

          k =-0.4947-0.4947-0.4947 (  3912 PWs)   bands (ev):

   -46.7590 -23.0668 -23.0668 -23.0668 -22.9952  -6.2664  -6.2664  -6.2664
    -5.2799  -5.2799  -5.2799   5.1607   5.6645   5.6645   6.0822   6.0822
     6.0822   9.7422   9.7422   9.7422

     highest occupied level (ev):     9.7422

!    total energy              =    -287.01633547 Ry
     estimated scf accuracy    <          9.1E-09 Ry

     The total energy is the sum of the following terms:
     one-electron contribution =     -79.22967490 Ry
     hartree contribution      =      61.53330644 Ry
     xc contribution           =     -58.42260531 Ry
     ewald contribution        =    -210.89736169 Ry

     convergence has been achieved in   7 iterations

     negative rho (up, down):  6.764E-02 0.000E+00

     Forces acting on atoms (cartesian axes, Ry/au):

     atom    1 type  1   force =     0.00000000    0.00000000    0.00000000
     atom    2 type  2   force =     0.00000000    0.00000000    0.00000000
     atom    3 type  3   force =     0.00000000    0.00000000    0.00000000
     atom    4 type  3   force =     0.00000000    0.00000000    0.00000000
     atom    5 type  3   force =     0.00000000    0.00000000    0.00000000

     Total force =     0.000000     Total SCF correction =     0.000000


     Computing stress (Cartesian axis) and pressure


     negative rho (up, down):  6.764E-02 0.000E+00
          total   stress  (Ry/bohr**3)                   (kbar)     P=        3.99
   0.00002712   0.00000000   0.00000000            3.99        0.00        0.00
   0.00000000   0.00002712   0.00000000            0.00        3.99        0.00
   0.00000000   0.00000000   0.00002712            0.00        0.00        3.99

     Energy error            =      2.9E-03 Ry
     Gradient error          =      1.3E-31 Ry/Bohr
     Cell gradient error     =      4.0E+00 kbar

     number of scf cycles    =   2
     number of bfgs steps    =   1

     enthalpy           old  =    -287.0134107226 Ry
     enthalpy           new  =    -287.0163354659 Ry

     CASE: enthalpy          _new < enthalpy          _old

     new trust radius        =       0.0029695135 bohr
     new conv_thr            =       0.0000000100 Ry

     new unit-cell volume =    412.02015 a.u.^3 (    61.05509 Ang^3 )
     density =      4.99029 g/cm^3

CELL_PARAMETERS (angstrom)
   3.937681803   0.000000000   0.000000000
   0.000000000   3.937681803   0.000000000
   0.000000000   0.000000000   3.937681803

ATOMIC_POSITIONS (crystal)
Sr               0.0000000000        0.0000000000        0.0000000000
Ti               0.5000000000        0.5000000000        0.5000000000
O                0.5000000000        0.5000000000        0.0000000000
O                0.5000000000        0.0000000000        0.5000000000
O                0.0000000000        0.5000000000        0.5000000000



     Writing config-only to output data dir ./out/SrTiO3.save/ :
     XML data file
     NEW-OLD atomic charge density approx. for the potential
     New effective cutoffs (rho, wfc):  683.04   68.41

     Check: negative core charge=   -0.000002

     negative rho (up, down):  6.765E-02 0.000E+00

     total cpu time spent up to now is       25.6 secs

     Self-consistent Calculation

     iteration #  1     ecut=    70.00 Ry     beta= 0.70
     Davidson diagonalization with overlap
     ethr =  1.00E-06,  avg # of iterations =  2.0

     Threshold (ethr) on eigenvalues was too large:
     Diagonalizing with lowered threshold

     Davidson diagonalization with overlap
     ethr =  1.83E-09,  avg # of iterations =  4.8

     negative rho (up, down):  6.765E-02 0.000E+00

     total cpu time spent up to now is       25.9 secs

     total energy              =    -287.01634813 Ry
     estimated scf accuracy    <       0.00000040 Ry

     iteration #  2     ecut=    70.00 Ry     beta= 0.70
     Davidson diagonalization with overlap
     ethr =  1.00E-09,  avg # of iterations =  4.8

     negative rho (up, down):  6.765E-02 0.000E+00

     total cpu time spent up to now is       26.0 secs

     total energy              =    -287.01634911 Ry
     estimated scf accuracy    <       0.00000054 Ry

     iteration #  3     ecut=    70.00 Ry     beta= 0.70
     Davidson diagonalization with overlap
     ethr =  1.00E-09,  avg # of iterations =  4.1

     negative rho (up, down):  6.765E-02 0.000E+00

     total cpu time spent up to now is       26.2 secs

     total energy              =    -287.01634933 Ry
     estimated scf accuracy    <       0.00000009 Ry

     iteration #  4     ecut=    70.00 Ry     beta= 0.70
     Davidson diagonalization with overlap
     ethr =  2.16E-10,  avg # of iterations =  3.7

     negative rho (up, down):  6.765E-02 0.000E+00

     total cpu time spent up to now is       26.4 secs

     End of self-consistent calculation

          k = 0.0000 0.0000 0.0000 (  3887 PWs)   bands (ev):

   -46.8013 -23.0872 -23.0486 -23.0486 -23.0486  -7.5803  -6.6118  -6.6118
    -5.0738  -5.0738  -5.0738   6.9157   6.9157   6.9157   8.5794   8.5794
     8.5794   9.3487   9.3487   9.3487

          k = 0.0000 0.0000 0.0989 (  3911 PWs)   bands (ev):

   -46.8012 -23.1051 -23.0484 -23.0484 -23.0346  -7.5822  -6.6206  -6.6084
    -5.0697  -5.0697  -5.0061   6.7874   6.9108   6.9108   8.4510   8.4510
     8.4941   9.0381   9.2822   9.2822

          k = 0.0000 0.0000 0.1977 (  3911 PWs)   bands (ev):

   -46.8010 -23.1353 -23.0477 -23.0477 -23.0144  -7.6117  -6.5992  -6.5968
    -5.0590  -5.0590  -4.8477   6.4436   6.9010   6.9010   8.1384   8.1384
     8.2852   8.3924   9.1672   9.1672

          k = 0.0000 0.0000 0.2966 (  3940 PWs)   bands (ev):

   -46.8007 -23.1641 -23.0469 -23.0469 -22.9979  -7.6835  -6.5879  -6.4977
    -5.0456  -5.0456  -4.6789   5.9988   6.8981   6.8981   7.7936   7.7936
     7.7963   8.0506   9.0705   9.0705

          k = 0.0000 0.0000 0.3954 (  3948 PWs)   bands (ev):

   -46.8005 -23.1846 -23.0462 -23.0462 -22.9872  -7.7568  -6.5786  -6.3796
    -5.0348  -5.0348  -4.5585   5.6232   6.9119   6.9119   7.4164   7.5297
     7.5297   7.8760   9.0074   9.0074

          k = 0.0000 0.0000-0.4943 (  3948 PWs)   bands (ev):

   -46.8004 -23.1920 -23.0459 -23.0459 -22.9835  -7.7865  -6.5751  -6.3279
    -5.0306  -5.0306  -4.5157   5.4768   6.9257   6.9257   7.2888   7.4261
     7.4261   7.8123   8.9855   8.9855

          k = 0.0000 0.0989 0.0989 (  3906 PWs)   bands (ev):

   -46.8011 -23.1138 -23.0543 -23.0481 -23.0236  -7.5773  -6.6311  -6.6066
    -5.0655  -5.0329  -4.9773   6.6994   6.8652   6.9065   8.1706   8.3412
     8.5864   8.9103   9.1007   9.2003

          k = 0.0000 0.0989 0.1977 (  3924 PWs)   bands (ev):

   -46.8009 -23.1357 -23.0565 -23.0474 -23.0090  -7.5889  -6.6294  -6.5861
    -5.0546  -5.0126  -4.8431   6.3956   6.8101   6.8978   7.7536   8.0607
     8.3583   8.5774   8.9650   9.0580

          k = 0.0000 0.0989 0.2966 (  3946 PWs)   bands (ev):

   -46.8006 -23.1606 -23.0549 -23.0466 -22.9973  -7.6430  -6.5918  -6.5250
    -5.0411  -5.0007  -4.6885   5.9778   6.7574   6.8965   7.3091   7.7365
     7.9381   8.4253   8.8616   8.9439

          k = 0.0000 0.0989 0.3954 (  3939 PWs)   bands (ev):

   -46.8004 -23.1795 -23.0528 -23.0459 -22.9899  -7.7062  -6.5706  -6.4261
    -5.0300  -4.9910  -4.5777   5.6147   6.7214   6.9126   6.9777   7.4812
     7.7024   8.2944   8.7921   8.8727

          k = 0.0000 0.0989-0.4943 (  3948 PWs)   bands (ev):

   -46.8003 -23.1865 -23.0519 -23.0457 -22.9873  -7.7330  -6.5637  -6.3802
    -5.0258  -4.9870  -4.5383   5.4710   6.7176   6.8508   6.9284   7.3789
     7.6276   8.2438   8.7675   8.8485

          k = 0.0000 0.1977 0.1977 (  3934 PWs)   bands (ev):

   -46.8007 -23.1400 -23.0690 -23.0468 -23.0020  -7.5478  -6.6768  -6.5542
    -5.0432  -4.9293  -4.8069   6.2172   6.6238   6.8919   7.2524   7.8504
     8.2504   8.5010   8.8526   8.8930

          k = 0.0000 0.1977 0.2966 (  3952 PWs)   bands (ev):

   -46.8004 -23.1520 -23.0725 -23.0460 -22.9987  -7.5404  -6.6637  -6.5172
    -5.0290  -4.8979  -4.7092   5.9011   6.4341   6.8007   6.8939   7.5834
     7.9866   8.4430   8.6846   8.9071

          k = 0.0000 0.1977 0.3954 (  3941 PWs)   bands (ev):

   -46.8002 -23.1652 -23.0694 -23.0453 -22.9982  -7.5667  -6.5949  -6.4974
    -5.0175  -4.8887  -4.6233   5.5872   6.2047   6.6059   6.9149   7.3559
     7.8344   8.4133   8.5842   8.8679

          k = 0.0000 0.1977-0.4943 (  3954 PWs)   bands (ev):

   -46.8001 -23.1706 -23.0674 -23.0451 -22.9985  -7.5825  -6.5455  -6.5041
    -5.0131  -4.8852  -4.5918   5.4546   6.1039   6.5660   6.9359   7.2581
     7.7878   8.4017   8.5511   8.8447

          k = 0.0000 0.2966 0.2966 (  3944 PWs)   bands (ev):

   -46.8001 -23.1444 -23.0872 -23.0452 -23.0042  -7.4308  -6.7260  -6.4975
    -5.0141  -4.8057  -4.7117   5.7235   6.1809   6.2542   6.8978   7.3836
     7.9685   8.2915   8.4507   9.1569

          k = 0.0000 0.2966 0.3954 (  3936 PWs)   bands (ev):

   -46.7999 -23.1449 -23.0890 -23.0445 -23.0120  -7.3737  -6.6996  -6.5172
    -5.0019  -4.7799  -4.6669   5.5142   5.7827   6.1143   6.9199   7.2018
     7.9617   8.2400   8.3043   9.2681

          k = 0.0000 0.2966-0.4943 (  3950 PWs)   bands (ev):

   -46.7998 -23.1474 -23.0864 -23.0443 -23.0161  -7.3631  -6.6390  -6.5629
    -4.9972  -4.7766  -4.6425   5.4225   5.6186   6.0940   6.9463   7.1144
     7.9717   8.2173   8.2557   9.2958

          k = 0.0000 0.3954 0.3954 (  3958 PWs)   bands (ev):

   -46.7996 -23.1264 -23.1019 -23.0439 -23.0282  -7.1916  -6.7611  -6.5791
    -4.9892  -4.7074  -4.6817   5.3608   5.5131   5.7802   6.9335   7.0695
     8.0636   8.1165   8.1979   9.4855

          k = 0.0000 0.3954-0.4943 (  3946 PWs)   bands (ev):

   -46.7996 -23.1218 -23.1017 -23.0436 -23.0370  -7.1165  -6.7378  -6.6555
    -4.9843  -4.6982  -4.6661   5.3095   5.3418   5.7227   6.9559   7.0021
     8.0516   8.1191   8.1771   9.5505

          k = 0.0000-0.4943-0.4943 (  3932 PWs)   bands (ev):

   -46.7995 -23.1075 -23.1075 -23.0496 -23.0434  -6.9426  -6.7737  -6.7737
    -4.9794  -4.6700  -4.6700   5.2035   5.2637   5.6252   6.9600   6.9600
     7.9794   8.1752   8.1752   9.6293

          k = 0.0989 0.0989 0.0989 (  3902 PWs)   bands (ev):

   -46.8010 -23.1192 -23.0540 -23.0540 -23.0160  -7.5670  -6.6236  -6.6236
    -5.0351  -5.0351  -4.9433   6.6094   6.8624   6.8624   8.0885   8.0885
     8.6773   8.7231   9.0638   9.0638

          k = 0.0989 0.0989 0.1977 (  3924 PWs)   bands (ev):

   -46.8008 -23.1356 -23.0582 -23.0533 -23.0051  -7.5637  -6.6264  -6.6038
    -5.0410  -4.9946  -4.8300   6.3380   6.7701   6.8569   7.7026   7.7662
     8.3647   8.6609   8.8592   8.9697

          k = 0.0989 0.0989 0.2966 (  3933 PWs)   bands (ev):

   -46.8005 -23.1572 -23.0565 -23.0525 -22.9970  -7.6018  -6.5788  -6.5590
    -5.0488  -4.9608  -4.6952   5.9543   6.6673   6.8580   7.2771   7.3579
     8.1789   8.5296   8.6845   8.8737

          k = 0.0989 0.0989 0.3954 (  3949 PWs)   bands (ev):

   -46.8003 -23.1746 -23.0532 -23.0518 -22.9924  -7.6556  -6.5581  -6.4626
    -5.0556  -4.9345  -4.5977   5.6065   6.5969   6.8805   6.9182   7.1088
     8.1086   8.3922   8.5561   8.8103

          k = 0.0989 0.0989-0.4943 (  3954 PWs)   bands (ev):

   -46.8002 -23.1811 -23.0517 -23.0515 -22.9909  -7.6794  -6.5501  -6.4184
    -5.0583  -4.9242  -4.5631   5.4660   6.5825   6.7839   6.9277   6.9832
     8.0929   8.3365   8.5064   8.7883

          k = 0.0989 0.1977 0.1977 (  3936 PWs)   bands (ev):

   -46.8006 -23.1383 -23.0688 -23.0542 -23.0002  -7.5153  -6.6604  -6.5765
    -5.0331  -4.9463  -4.7800   6.1574   6.6242   6.8165   7.2605   7.6047
     8.0454   8.6808   8.8008   8.8809

          k = 0.0989 0.1977 0.2966 (  3946 PWs)   bands (ev):

   -46.8003 -23.1485 -23.0724 -23.0531 -22.9989  -7.4974  -6.6456  -6.5344
    -5.0441  -4.8958  -4.7046   5.8736   6.4160   6.8003   6.8228   7.3000
     7.9434   8.5290   8.6866   8.9080

          k = 0.0989 0.1977 0.3954 (  3931 PWs)   bands (ev):

   -46.8001 -23.1608 -23.0692 -23.0517 -23.0002  -7.5160  -6.5784  -6.5070
    -5.0601  -4.8559  -4.6446   5.5806   6.1951   6.6004   6.8182   7.0409
     8.0013   8.3395   8.6300   8.8735

          k = 0.0989 0.1977-0.4943 (  3948 PWs)   bands (ev):

   -46.8000 -23.1661 -23.0671 -23.0510 -23.0013  -7.5292  -6.5258  -6.5141
    -5.0671  -4.8402  -4.6228   5.4516   6.1056   6.5466   6.8861   6.8870
     8.0864   8.2117   8.6102   8.8519

          k = 0.0989 0.2966 0.2966 (  3946 PWs)   bands (ev):

   -46.8000 -23.1408 -23.0870 -23.0521 -23.0049  -7.3844  -6.7008  -6.5002
    -5.0398  -4.8387  -4.6987   5.7105   6.1835   6.2857   6.7705   7.1713
     7.7721   8.4921   8.5041   9.1591

          k = 0.0989 0.2966 0.3954 (  3937 PWs)   bands (ev):

   -46.7998 -23.1415 -23.0887 -23.0509 -23.0132  -7.3230  -6.6756  -6.5040
    -5.0452  -4.7928  -4.6861   5.5172   5.8153   6.1213   6.7786   6.9860
     7.7963   8.3469   8.4775   9.2714

          k = 0.0989 0.2966-0.4943 (  3938 PWs)   bands (ev):

   -46.7997 -23.1440 -23.0861 -23.0501 -23.0176  -7.3103  -6.6248  -6.5346
    -5.0489  -4.7722  -4.6820   5.4225   5.6652   6.0970   6.8407   6.8539
     7.8335   8.2837   8.4649   9.2995

          k = 0.0989 0.3954 0.3954 (  3944 PWs)   bands (ev):

   -46.7996 -23.1241 -23.1016 -23.0500 -23.0284  -7.1401  -6.7301  -6.5526
    -5.0300  -4.7521  -4.7042   5.3924   5.5488   5.7822   6.7745   6.8942
     7.7296   8.3555   8.4178   9.4907

          k = 0.0989 0.3954-0.4943 (  3940 PWs)   bands (ev):

   -46.7995 -23.1202 -23.1014 -23.0495 -23.0368  -7.0640  -6.7094  -6.6202
    -5.0242  -4.7318  -4.7126   5.3451   5.3817   5.7251   6.8104   6.8169
     7.7156   8.3603   8.4049   9.5569

          k = 0.0989-0.4943-0.4943 (  3928 PWs)   bands (ev):

   -46.7994 -23.1072 -23.1072 -23.0492 -23.0480  -6.8852  -6.7407  -6.7407
    -5.0130  -4.7190  -4.7190   5.2675   5.2846   5.6268   6.7996   6.7996
     7.6774   8.3937   8.3937   9.6371

          k = 0.1977 0.1977 0.1977 (  3956 PWs)   bands (ev):

   -46.8004 -23.1359 -23.0680 -23.0680 -22.9990  -7.4424  -6.6157  -6.6157
    -4.9926  -4.9926  -4.7275   6.0028   6.6240   6.6240   7.2237   7.2237
     7.5433   8.7761   8.7761   8.9425

          k = 0.1977 0.1977 0.2966 (  3924 PWs)   bands (ev):

   -46.8001 -23.1397 -23.0741 -23.0671 -23.0016  -7.3872  -6.6157  -6.5562
    -5.0542  -4.9207  -4.6913   5.7955   6.3502   6.6152   6.8200   6.9191
     7.4455   8.7259   8.7520   8.9997

          k = 0.1977 0.1977 0.3954 (  3914 PWs)   bands (ev):

   -46.7998 -23.1488 -23.0701 -23.0664 -23.0065  -7.3765  -6.5712  -6.5041
    -5.1082  -4.8403  -4.6883   5.5611   6.1028   6.5368   6.5761   6.7616
     7.5028   8.6835   8.7055   8.9786

          k = 0.1977 0.1977-0.4943 (  3936 PWs)   bands (ev):

   -46.7998 -23.1533 -23.0666 -23.0661 -23.0094  -7.3800  -6.5441  -6.4830
    -5.1301  -4.7969  -4.7008   5.4426   6.0229   6.4529   6.5421   6.7292
     7.5323   8.6688   8.6800   8.9590

          k = 0.1977 0.2966 0.2966 (  3927 PWs)   bands (ev):

   -46.7998 -23.1314 -23.0862 -23.0686 -23.0083  -7.2623  -6.6302  -6.5116
    -5.0710  -4.9299  -4.6937   5.6774   6.1907   6.3616   6.5187   6.8216
     7.1394   8.7271   8.8160   9.1892

          k = 0.1977 0.2966 0.3954 (  3937 PWs)   bands (ev):

   -46.7996 -23.1322 -23.0879 -23.0669 -23.0172  -7.1843  -6.6135  -6.4719
    -5.1218  -4.8696  -4.7284   5.5215   5.8885   6.1464   6.4851   6.6580
     7.1465   8.7270   8.8111   9.2919

          k = 0.1977 0.2966-0.4943 (  3930 PWs)   bands (ev):

   -46.7995 -23.1349 -23.0853 -23.0655 -23.0219  -7.1636  -6.5886  -6.4638
    -5.1466  -4.7971  -4.7862   5.4213   5.7759   6.1036   6.4818   6.5894
     7.1678   8.7418   8.7868   9.3186

          k = 0.1977 0.3954 0.3954 (  3940 PWs)   bands (ev):

   -46.7993 -23.1178 -23.1008 -23.0657 -23.0296  -7.0004  -6.6419  -6.4843
    -5.1208  -4.8762  -4.7778   5.4328   5.6828   5.7878   6.4795   6.5879
     7.0371   8.7694   8.8357   9.5068

          k = 0.1977 0.3954-0.4943 (  3942 PWs)   bands (ev):

   -46.7992 -23.1159 -23.1006 -23.0648 -23.0362  -6.9205  -6.6298  -6.5235
    -5.1213  -4.8398  -4.8308   5.3511   5.5704   5.7314   6.5022   6.5322
     7.0205   8.8080   8.8211   9.5746

          k = 0.1977-0.4943-0.4943 (  3940 PWs)   bands (ev):

   -46.7992 -23.1064 -23.1064 -23.0645 -23.0439  -6.7308  -6.6465  -6.6465
    -5.0993  -4.8549  -4.8549   5.2742   5.4973   5.6310   6.5128   6.5128
     6.9804   8.8348   8.8348   9.6575

          k = 0.2966 0.2966 0.2966 (  3947 PWs)   bands (ev):

   -46.7995 -23.1207 -23.0852 -23.0852 -23.0153  -7.1117  -6.5311  -6.5311
    -5.0544  -5.0544  -4.7289   5.6292   6.2013   6.2013   6.4466   6.5297
     6.5297   8.9658   8.9658   9.2909

          k = 0.2966 0.2966 0.3954 (  3939 PWs)   bands (ev):

   -46.7993 -23.1195 -23.0882 -23.0845 -23.0240  -6.9949  -6.5448  -6.4370
    -5.1692  -4.9877  -4.8004   5.5155   5.9160   6.1506   6.2157   6.3397
     6.5948   9.0043   9.1109   9.3801

          k = 0.2966 0.2966-0.4943 (  3918 PWs)   bands (ev):

   -46.7992 -23.1224 -23.0846 -23.0842 -23.0285  -6.9537  -6.5469  -6.3963
    -5.2178  -4.9143  -4.8734   5.4087   5.8522   6.0606   6.2407   6.2557
     6.6307   9.0135   9.1563   9.4064

          k = 0.2966 0.3954 0.3954 (  3948 PWs)   bands (ev):

   -46.7990 -23.1096 -23.0998 -23.0846 -23.0317  -6.8113  -6.5134  -6.4100
    -5.1992  -5.0487  -4.8979   5.4413   5.7954   5.8702   6.1679   6.3276
     6.3721   9.1680   9.2188   9.5355

          k = 0.2966 0.3954-0.4943 (  3942 PWs)   bands (ev):

   -46.7990 -23.1106 -23.0996 -23.0836 -23.0355  -6.7224  -6.5173  -6.4010
    -5.2263  -5.0115  -4.9792   5.3435   5.7389   5.8013   6.1955   6.2431
     6.3859   9.2065   9.2586   9.6002

          k = 0.2966-0.4943-0.4943 (  3960 PWs)   bands (ev):

   -46.7989 -23.1054 -23.1054 -23.0834 -23.0389  -6.5310  -6.5074  -6.5074
    -5.2027  -5.0449  -5.0449   5.2654   5.6362   5.7612   6.2501   6.2673
     6.2673   9.2761   9.2761   9.6831

          k = 0.3954 0.3954 0.3954 (  3948 PWs)   bands (ev):

   -46.7988 -23.1032 -23.0990 -23.0990 -23.0339  -6.6239  -6.3833  -6.3833
    -5.2141  -5.2141  -5.0348   5.3697   5.8028   5.8028   5.9862   6.1614
     6.1614   9.4437   9.4437   9.5919

          k = 0.3954 0.3954-0.4943 (  3926 PWs)   bands (ev):

   -46.7987 -23.1062 -23.0989 -23.0987 -23.0350  -6.5166  -6.4098  -6.3229
    -5.2879  -5.1663  -5.1371   5.2771   5.7182   5.8062   5.9656   6.1044
     6.1724   9.4918   9.5411   9.6424

          k = 0.3954-0.4943-0.4943 (  3932 PWs)   bands (ev):

   -46.7986 -23.1045 -23.1045 -23.0985 -23.0348  -6.3631  -6.3631  -6.3612
    -5.2840  -5.2300  -5.2300   5.2017   5.6405   5.7726   5.9759   6.1113
     6.1113   9.5954   9.5954   9.7040

          k =-0.4943-0.4943-0.4943 (  3912 PWs)   bands (ev):

   -46.7986 -23.1042 -23.1042 -23.1042 -23.0332  -6.2941  -6.2941  -6.2941
    -5.3145  -5.3145  -5.3145   5.1350   5.6421   5.6421   6.0583   6.0583
     6.0583   9.7121   9.7121   9.7121

     highest occupied level (ev):     9.7121

!    total energy              =    -287.01634935 Ry
     estimated scf accuracy    <          3.0E-09 Ry

     The total energy is the sum of the following terms:
     one-electron contribution =     -79.45286926 Ry
     hartree contribution      =      61.59514856 Ry
     xc contribution           =     -58.41558837 Ry
     ewald contribution        =    -210.74304028 Ry

     convergence has been achieved in   4 iterations

     negative rho (up, down):  6.765E-02 0.000E+00

     Forces acting on atoms (cartesian axes, Ry/au):

     atom    1 type  1   force =     0.00000000    0.00000000    0.00000000
     atom    2 type  2   force =     0.00000000    0.00000000   -0.00000000
     atom    3 type  3   force =     0.00000000    0.00000000    0.00000000
     atom    4 type  3   force =     0.00000000    0.00000000    0.00000000
     atom    5 type  3   force =     0.00000000    0.00000000    0.00000000

     Total force =     0.000000     Total SCF correction =     0.000000


     Computing stress (Cartesian axis) and pressure


     negative rho (up, down):  6.765E-02 0.000E+00
          total   stress  (Ry/bohr**3)                   (kbar)     P=        0.24
   0.00000167   0.00000000   0.00000000            0.24        0.00        0.00
   0.00000000   0.00000167   0.00000000            0.00        0.24        0.00
   0.00000000   0.00000000   0.00000167            0.00        0.00        0.24

     Energy error            =      1.4E-05 Ry
     Gradient error          =      1.3E-31 Ry/Bohr
     Cell gradient error     =      2.4E-01 kbar

     bfgs converged in   3 scf cycles and   2 bfgs steps
     (criteria: energy <  1.0E-04 Ry, force <  1.0E-03 Ry/Bohr, cell <  5.0E-01 kbar)

     End of BFGS Geometry Optimization

     Final enthalpy           =    -287.0163493473 Ry

     File ./out/SrTiO3.bfgs deleted, as requested
Begin final coordinates
     new unit-cell volume =    412.02015 a.u.^3 (    61.05509 Ang^3 )
     density =      4.99029 g/cm^3

CELL_PARAMETERS (angstrom)
   3.937681803   0.000000000   0.000000000
   0.000000000   3.937681803   0.000000000
   0.000000000   0.000000000   3.937681803

ATOMIC_POSITIONS (crystal)
Sr               0.0000000000        0.0000000000        0.0000000000
Ti               0.5000000000        0.5000000000        0.5000000000
O                0.5000000000        0.5000000000        0.0000000000
O                0.5000000000        0.0000000000        0.5000000000
O                0.0000000000        0.5000000000        0.5000000000
End final coordinates



     Writing config-only to output data dir ./out/SrTiO3.save/ :
     XML data file

     Final scf calculation at the relaxed structure.
     The G-vectors are recalculated for the final unit cell
     Results may differ from those at the preceding step.
 
     Parallelization info
     --------------------
     sticks:   dense  smooth     PW     G-vecs:    dense   smooth      PW
     Min         773     307     90                32230     8132    1314
     Max         774     308     92                32231     8133    1315
     Sum        3093    1229    365               128923    32531    5257
 
     Using Slab Decomposition
 


     bravais-lattice index     =            0
     lattice parameter (alat)  =       7.3562  a.u.
     unit-cell volume          =     412.0202 (a.u.)^3
     number of atoms/cell      =            5
     number of atomic types    =            3
     number of electrons       =        40.00
     number of Kohn-Sham states=           20
     kinetic-energy cutoff     =      70.0000  Ry
     charge density cutoff     =     700.0000  Ry
     scf convergence threshold =      1.0E-08
     mixing beta               =       0.7000
     number of iterations used =            8  plain     mixing
     press convergence thresh. =      5.0E-01
     Exchange-correlation= SLA  PW   PBE  PBE
                           (   1   4   3   4   0   0   0)

     celldm(1)=   7.356216  celldm(2)=   0.000000  celldm(3)=   0.000000
     celldm(4)=   0.000000  celldm(5)=   0.000000  celldm(6)=   0.000000

     crystal axes: (cart. coord. in units of alat)
               a(1) = (   1.011544   0.000000   0.000000 )  
               a(2) = (   0.000000   1.011544   0.000000 )  
               a(3) = (   0.000000   0.000000   1.011544 )  

     reciprocal axes: (cart. coord. in units 2 pi/alat)
               b(1) = (  0.988587  0.000000  0.000000 )  
               b(2) = (  0.000000  0.988587  0.000000 )  
               b(3) = (  0.000000  0.000000  0.988587 )  


     PseudoPot. # 1 for Sr read from file:
     /home/m0049/m004905/PSPOT/sr_pbe_v1.uspp.F.UPF
     MD5 check sum: 6b418c05fbe9db5448babca5e47b7a5b
     Pseudo is Ultrasoft + core correction, Zval = 10.0
     Generated by new atomic code, or converted to UPF format
     Using radial grid of  883 points,  6 beta functions with: 
                l(1) =   0
                l(2) =   0
                l(3) =   1
                l(4) =   1
                l(5) =   2
                l(6) =   2
     Q(r) pseudized with  6 coefficients,  rinner =    1.400   1.400   1.400
                                                       1.400   1.400

     PseudoPot. # 2 for Ti read from file:
     /home/m0049/m004905/PSPOT/ti_pbe_v1.4.uspp.F.UPF
     MD5 check sum: 88a00a6731bd790ddea75d31a80cb452
     Pseudo is Ultrasoft + core correction, Zval = 12.0
     Generated by new atomic code, or converted to UPF format
     Using radial grid of  851 points,  6 beta functions with: 
                l(1) =   0
                l(2) =   0
                l(3) =   1
                l(4) =   1
                l(5) =   2
                l(6) =   2
     Q(r) pseudized with  6 coefficients,  rinner =    1.000   1.000   1.000
                                                       1.000   1.000

     PseudoPot. # 3 for O  read from file:
     /home/m0049/m004905/PSPOT/o_pbe_v1.2.uspp.F.UPF
     MD5 check sum: 734c27235a0248c51dbae37a1fbe46ec
     Pseudo is Ultrasoft + core correction, Zval =  6.0
     Generated by new atomic code, or converted to UPF format
     Using radial grid of  737 points,  5 beta functions with: 
                l(1) =   0
                l(2) =   0
                l(3) =   1
                l(4) =   1
                l(5) =   2
     Q(r) pseudized with  8 coefficients,  rinner =    0.900   0.900   0.900
                                                       0.900   0.900

     atomic species   valence    mass     pseudopotential
     Sr               10.00    87.62000     Sr( 1.00)
     Ti               12.00    47.86700     Ti( 1.00)
     O                 6.00    15.99900     O ( 1.00)

     48 Sym. Ops., with inversion, found



   Cartesian axes

     site n.     atom                  positions (alat units)
         1        Sr     tau(   1) = (   0.0000000   0.0000000   0.0000000  )
         2        Ti     tau(   2) = (   0.5057722   0.5057722   0.5057722  )
         3        O      tau(   3) = (   0.5057722   0.5057722   0.0000000  )
         4        O      tau(   4) = (   0.5057722   0.0000000   0.5057722  )
         5        O      tau(   5) = (   0.0000000   0.5057722   0.5057722  )

     number of k points=    56
                       cart. coord. in units 2pi/alat
        k(    1) = (   0.0000000   0.0000000   0.0000000), wk =   0.0020000
        k(    2) = (   0.0000000   0.0000000   0.0988587), wk =   0.0120000
        k(    3) = (   0.0000000   0.0000000   0.1977175), wk =   0.0120000
        k(    4) = (   0.0000000   0.0000000   0.2965762), wk =   0.0120000
        k(    5) = (   0.0000000   0.0000000   0.3954349), wk =   0.0120000
        k(    6) = (   0.0000000   0.0000000  -0.4942936), wk =   0.0060000
        k(    7) = (   0.0000000   0.0988587   0.0988587), wk =   0.0240000
        k(    8) = (   0.0000000   0.0988587   0.1977175), wk =   0.0480000
        k(    9) = (   0.0000000   0.0988587   0.2965762), wk =   0.0480000
        k(   10) = (   0.0000000   0.0988587   0.3954349), wk =   0.0480000
        k(   11) = (   0.0000000   0.0988587  -0.4942936), wk =   0.0240000
        k(   12) = (   0.0000000   0.1977175   0.1977175), wk =   0.0240000
        k(   13) = (   0.0000000   0.1977175   0.2965762), wk =   0.0480000
        k(   14) = (   0.0000000   0.1977175   0.3954349), wk =   0.0480000
        k(   15) = (   0.0000000   0.1977175  -0.4942936), wk =   0.0240000
        k(   16) = (   0.0000000   0.2965762   0.2965762), wk =   0.0240000
        k(   17) = (   0.0000000   0.2965762   0.3954349), wk =   0.0480000
        k(   18) = (   0.0000000   0.2965762  -0.4942936), wk =   0.0240000
        k(   19) = (   0.0000000   0.3954349   0.3954349), wk =   0.0240000
        k(   20) = (   0.0000000   0.3954349  -0.4942936), wk =   0.0240000
        k(   21) = (   0.0000000  -0.4942936  -0.4942936), wk =   0.0060000
        k(   22) = (   0.0988587   0.0988587   0.0988587), wk =   0.0160000
        k(   23) = (   0.0988587   0.0988587   0.1977175), wk =   0.0480000
        k(   24) = (   0.0988587   0.0988587   0.2965762), wk =   0.0480000
        k(   25) = (   0.0988587   0.0988587   0.3954349), wk =   0.0480000
        k(   26) = (   0.0988587   0.0988587  -0.4942936), wk =   0.0240000
        k(   27) = (   0.0988587   0.1977175   0.1977175), wk =   0.0480000
        k(   28) = (   0.0988587   0.1977175   0.2965762), wk =   0.0960000
        k(   29) = (   0.0988587   0.1977175   0.3954349), wk =   0.0960000
        k(   30) = (   0.0988587   0.1977175  -0.4942936), wk =   0.0480000
        k(   31) = (   0.0988587   0.2965762   0.2965762), wk =   0.0480000
        k(   32) = (   0.0988587   0.2965762   0.3954349), wk =   0.0960000
        k(   33) = (   0.0988587   0.2965762  -0.4942936), wk =   0.0480000
        k(   34) = (   0.0988587   0.3954349   0.3954349), wk =   0.0480000
        k(   35) = (   0.0988587   0.3954349  -0.4942936), wk =   0.0480000
        k(   36) = (   0.0988587  -0.4942936  -0.4942936), wk =   0.0120000
        k(   37) = (   0.1977175   0.1977175   0.1977175), wk =   0.0160000
        k(   38) = (   0.1977175   0.1977175   0.2965762), wk =   0.0480000
        k(   39) = (   0.1977175   0.1977175   0.3954349), wk =   0.0480000
        k(   40) = (   0.1977175   0.1977175  -0.4942936), wk =   0.0240000
        k(   41) = (   0.1977175   0.2965762   0.2965762), wk =   0.0480000
        k(   42) = (   0.1977175   0.2965762   0.3954349), wk =   0.0960000
        k(   43) = (   0.1977175   0.2965762  -0.4942936), wk =   0.0480000
        k(   44) = (   0.1977175   0.3954349   0.3954349), wk =   0.0480000
        k(   45) = (   0.1977175   0.3954349  -0.4942936), wk =   0.0480000
        k(   46) = (   0.1977175  -0.4942936  -0.4942936), wk =   0.0120000
        k(   47) = (   0.2965762   0.2965762   0.2965762), wk =   0.0160000
        k(   48) = (   0.2965762   0.2965762   0.3954349), wk =   0.0480000
        k(   49) = (   0.2965762   0.2965762  -0.4942936), wk =   0.0240000
        k(   50) = (   0.2965762   0.3954349   0.3954349), wk =   0.0480000
        k(   51) = (   0.2965762   0.3954349  -0.4942936), wk =   0.0480000
        k(   52) = (   0.2965762  -0.4942936  -0.4942936), wk =   0.0120000
        k(   53) = (   0.3954349   0.3954349   0.3954349), wk =   0.0160000
        k(   54) = (   0.3954349   0.3954349  -0.4942936), wk =   0.0240000
        k(   55) = (   0.3954349  -0.4942936  -0.4942936), wk =   0.0120000
        k(   56) = (  -0.4942936  -0.4942936  -0.4942936), wk =   0.0020000

     Dense  grid:   128923 G-vectors     FFT dimensions: (  64,  64,  64)

     Smooth grid:    32531 G-vectors     FFT dimensions: (  40,  40,  40)

     Estimated max dynamical RAM per process >      40.71 MB

[...]
     estimated scf accuracy    <       0.00036777 Ry

     iteration #  9     ecut=    70.00 Ry     beta= 0.70
     Davidson diagonalization with overlap
     ethr =  9.19E-07,  avg # of iterations =  2.9

     negative rho (up, down):  6.767E-02 0.000E+00

     total cpu time spent up to now is       28.5 secs

     total energy              =    -287.01637631 Ry
     estimated scf accuracy    <       0.00004674 Ry

     iteration # 10     ecut=    70.00 Ry     beta= 0.70
     Davidson diagonalization with overlap
     ethr =  1.17E-07,  avg # of iterations =  4.0

     negative rho (up, down):  6.767E-02 0.000E+00

     total cpu time spent up to now is       28.6 secs

     total energy              =    -287.01638912 Ry
     estimated scf accuracy    <       0.00000009 Ry

     iteration # 11     ecut=    70.00 Ry     beta= 0.70
     Davidson diagonalization with overlap
     ethr =  2.26E-10,  avg # of iterations =  5.7

     negative rho (up, down):  6.767E-02 0.000E+00

     total cpu time spent up to now is       28.9 secs

     total energy              =    -287.01638942 Ry
     estimated scf accuracy    <       0.00000030 Ry

     iteration # 12     ecut=    70.00 Ry     beta= 0.70
     Davidson diagonalization with overlap
     ethr =  2.26E-10,  avg # of iterations =  1.7

     negative rho (up, down):  6.766E-02 0.000E+00

     total cpu time spent up to now is       29.0 secs

     total energy              =    -287.01638936 Ry
     estimated scf accuracy    <       0.00000021 Ry

     iteration # 13     ecut=    70.00 Ry     beta= 0.70
     Davidson diagonalization with overlap
     ethr =  2.26E-10,  avg # of iterations =  4.0

     negative rho (up, down):  6.766E-02 0.000E+00

     total cpu time spent up to now is       29.2 secs

     End of self-consistent calculation

          k = 0.0000 0.0000 0.0000 (  4067 PWs)   bands (ev):

   -46.8014 -23.0872 -23.0488 -23.0488 -23.0488  -7.5803  -6.6119  -6.6119
    -5.0738  -5.0738  -5.0738   6.9156   6.9156   6.9156   8.5794   8.5794
     8.5794   9.3486   9.3486   9.3486

          k = 0.0000 0.0000 0.0989 (  4028 PWs)   bands (ev):

   -46.8013 -23.1051 -23.0485 -23.0485 -23.0347  -7.5823  -6.6206  -6.6084
    -5.0697  -5.0697  -5.0061   6.7873   6.9108   6.9108   8.4510   8.4510
     8.4940   9.0380   9.2822   9.2822

          k = 0.0000 0.0000 0.1977 (  4056 PWs)   bands (ev):

   -46.8011 -23.1354 -23.0478 -23.0478 -23.0145  -7.6118  -6.5993  -6.5969
    -5.0590  -5.0590  -4.8477   6.4436   6.9009   6.9009   8.1384   8.1384
     8.2851   8.3924   9.1671   9.1671

          k = 0.0000 0.0000 0.2966 (  4068 PWs)   bands (ev):

   -46.8008 -23.1641 -23.0470 -23.0470 -22.9980  -7.6836  -6.5879  -6.4977
    -5.0457  -5.0457  -4.6789   5.9987   6.8980   6.8980   7.7935   7.7935
     7.7962   8.0505   9.0704   9.0704

          k = 0.0000 0.0000 0.3954 (  4076 PWs)   bands (ev):

   -46.8006 -23.1847 -23.0463 -23.0463 -22.9873  -7.7568  -6.5787  -6.3797
    -5.0348  -5.0348  -4.5585   5.6231   6.9118   6.9118   7.4163   7.5296
     7.5296   7.8759   9.0074   9.0074

          k = 0.0000 0.0000-0.4943 (  4068 PWs)   bands (ev):

   -46.8005 -23.1921 -23.0461 -23.0461 -22.9836  -7.7866  -6.5752  -6.3280
    -5.0307  -5.0307  -4.5157   5.4767   6.9256   6.9256   7.2887   7.4260
     7.4260   7.8123   8.9855   8.9855

          k = 0.0000 0.0989 0.0989 (  4028 PWs)   bands (ev):

   -46.8012 -23.1138 -23.0544 -23.0482 -23.0237  -7.5774  -6.6312  -6.6066
    -5.0656  -5.0330  -4.9773   6.6994   6.8652   6.9064   8.1706   8.3411
     8.5863   8.9103   9.1007   9.2002

          k = 0.0000 0.0989 0.1977 (  4057 PWs)   bands (ev):

   -46.8010 -23.1358 -23.0566 -23.0476 -23.0091  -7.5890  -6.6295  -6.5862
    -5.0547  -5.0127  -4.8431   6.3956   6.8100   6.8977   7.7535   8.0607
     8.3583   8.5774   8.9650   9.0579

          k = 0.0000 0.0989 0.2966 (  4065 PWs)   bands (ev):

   -46.8007 -23.1607 -23.0550 -23.0467 -22.9974  -7.6430  -6.5919  -6.5251
    -5.0411  -5.0007  -4.6885   5.9777   6.7573   6.8964   7.3090   7.7365
     7.9381   8.4252   8.8615   8.9438

          k = 0.0000 0.0989 0.3954 (  4080 PWs)   bands (ev):

   -46.8005 -23.1796 -23.0529 -23.0461 -22.9900  -7.7063  -6.5707  -6.4262
    -5.0301  -4.9910  -4.5777   5.6146   6.7213   6.9126   6.9777   7.4811
     7.7023   8.2943   8.7920   8.8727

          k = 0.0000 0.0989-0.4943 (  4074 PWs)   bands (ev):

   -46.8004 -23.1865 -23.0520 -23.0458 -22.9874  -7.7330  -6.5637  -6.3803
    -5.0258  -4.9870  -4.5383   5.4710   6.7176   6.8507   6.9283   7.3788
     7.6275   8.2438   8.7674   8.8485

          k = 0.0000 0.1977 0.1977 (  4054 PWs)   bands (ev):

   -46.8008 -23.1401 -23.0692 -23.0469 -23.0021  -7.5479  -6.6769  -6.5542
    -5.0433  -4.9294  -4.8069   6.2172   6.6237   6.8918   7.2523   7.8503
     8.2503   8.5010   8.8525   8.8930

          k = 0.0000 0.1977 0.2966 (  4067 PWs)   bands (ev):

   -46.8005 -23.1521 -23.0726 -23.0461 -22.9987  -7.5404  -6.6638  -6.5173
    -5.0291  -4.8980  -4.7093   5.9011   6.4341   6.8007   6.8938   7.5834
     7.9866   8.4429   8.6845   8.9070

          k = 0.0000 0.1977 0.3954 (  4095 PWs)   bands (ev):

   -46.8003 -23.1653 -23.0696 -23.0454 -22.9983  -7.5667  -6.5949  -6.4975
    -5.0175  -4.8887  -4.6234   5.5872   6.2047   6.6058   6.9148   7.3558
     7.8343   8.4132   8.5841   8.8678

          k = 0.0000 0.1977-0.4943 (  4080 PWs)   bands (ev):

   -46.8002 -23.1707 -23.0675 -23.0452 -22.9986  -7.5825  -6.5456  -6.5042
    -5.0131  -4.8852  -4.5918   5.4545   6.1038   6.5659   6.9359   7.2581
     7.7878   8.4016   8.5510   8.8447

          k = 0.0000 0.2966 0.2966 (  4076 PWs)   bands (ev):

   -46.8002 -23.1445 -23.0874 -23.0453 -23.0043  -7.4308  -6.7261  -6.4975
    -5.0141  -4.8057  -4.7117   5.7234   6.1809   6.2541   6.8978   7.3836
     7.9685   8.2914   8.4506   9.1568

          k = 0.0000 0.2966 0.3954 (  4085 PWs)   bands (ev):

   -46.8000 -23.1451 -23.0892 -23.0446 -23.0121  -7.3738  -6.6997  -6.5173
    -5.0019  -4.7800  -4.6669   5.5141   5.7827   6.1142   6.9199   7.2018
     7.9616   8.2399   8.3042   9.2681

          k = 0.0000 0.2966-0.4943 (  4082 PWs)   bands (ev):

   -46.7999 -23.1475 -23.0865 -23.0444 -23.0162  -7.3632  -6.6390  -6.5630
    -4.9973  -4.7767  -4.6426   5.4224   5.6186   6.0939   6.9463   7.1143
     7.9716   8.2173   8.2556   9.2957

          k = 0.0000 0.3954 0.3954 (  4088 PWs)   bands (ev):

   -46.7997 -23.1265 -23.1021 -23.0440 -23.0283  -7.1916  -6.7612  -6.5791
    -4.9892  -4.7074  -4.6818   5.3607   5.5130   5.7801   6.9335   7.0695
     8.0635   8.1164   8.1979   9.4854

          k = 0.0000 0.3954-0.4943 (  4078 PWs)   bands (ev):

   -46.7997 -23.1219 -23.1018 -23.0437 -23.0371  -7.1166  -6.7379  -6.6556
    -4.9844  -4.6983  -4.6662   5.3095   5.3417   5.7226   6.9559   7.0020
     8.0515   8.1190   8.1770   9.5505

          k = 0.0000-0.4943-0.4943 (  4076 PWs)   bands (ev):

   -46.7996 -23.1077 -23.1077 -23.0496 -23.0435  -6.9427  -6.7737  -6.7737
    -4.9794  -4.6700  -4.6700   5.2034   5.2636   5.6251   6.9600   6.9600
     7.9793   8.1752   8.1752   9.6292

          k = 0.0989 0.0989 0.0989 (  4058 PWs)   bands (ev):

   -46.8012 -23.1193 -23.0541 -23.0541 -23.0161  -7.5671  -6.6237  -6.6237
    -5.0351  -5.0351  -4.9433   6.6093   6.8623   6.8623   8.0885   8.0885
     8.6772   8.7231   9.0637   9.0637

          k = 0.0989 0.0989 0.1977 (  4067 PWs)   bands (ev):

   -46.8009 -23.1357 -23.0583 -23.0535 -23.0052  -7.5638  -6.6265  -6.6039
    -5.0410  -4.9947  -4.8300   6.3380   6.7700   6.8569   7.7025   7.7661
     8.3646   8.6608   8.8591   8.9696

          k = 0.0989 0.0989 0.2966 (  4065 PWs)   bands (ev):

   -46.8006 -23.1573 -23.0566 -23.0526 -22.9971  -7.6019  -6.5789  -6.5591
    -5.0488  -4.9609  -4.6953   5.9542   6.6672   6.8579   7.2770   7.3579
     8.1789   8.5295   8.6844   8.8736

          k = 0.0989 0.0989 0.3954 (  4066 PWs)   bands (ev):

   -46.8004 -23.1747 -23.0533 -23.0519 -22.9925  -7.6557  -6.5582  -6.4627
    -5.0556  -4.9345  -4.5977   5.6064   6.5969   6.8805   6.9181   7.1087
     8.1085   8.3922   8.5561   8.8102

          k = 0.0989 0.0989-0.4943 (  4066 PWs)   bands (ev):

   -46.8003 -23.1812 -23.0518 -23.0517 -22.9909  -7.6795  -6.5502  -6.4185
    -5.0583  -4.9243  -4.5631   5.4659   6.5825   6.7838   6.9276   6.9832
     8.0928   8.3365   8.5064   8.7882

          k = 0.0989 0.1977 0.1977 (  4067 PWs)   bands (ev):

   -46.8007 -23.1384 -23.0689 -23.0543 -23.0003  -7.5153  -6.6605  -6.5766
    -5.0332  -4.9463  -4.7800   6.1573   6.6242   6.8164   7.2604   7.6046
     8.0453   8.6808   8.8008   8.8808

          k = 0.0989 0.1977 0.2966 (  4077 PWs)   bands (ev):

   -46.8004 -23.1486 -23.0725 -23.0532 -22.9990  -7.4975  -6.6457  -6.5345
    -5.0441  -4.8958  -4.7046   5.8735   6.4159   6.8002   6.8228   7.2999
     7.9434   8.5290   8.6865   8.9080

          k = 0.0989 0.1977 0.3954 (  4075 PWs)   bands (ev):

   -46.8002 -23.1610 -23.0693 -23.0518 -23.0003  -7.5160  -6.5784  -6.5071
    -5.0602  -4.8559  -4.6446   5.5805   6.1950   6.6003   6.8181   7.0408
     8.0012   8.3395   8.6299   8.8734

          k = 0.0989 0.1977-0.4943 (  4070 PWs)   bands (ev):

   -46.8001 -23.1662 -23.0672 -23.0511 -23.0014  -7.5293  -6.5259  -6.5141
    -5.0672  -4.8402  -4.6228   5.4515   6.1055   6.5465   6.8860   6.8869
     8.0863   8.2116   8.6101   8.8518

          k = 0.0989 0.2966 0.2966 (  4066 PWs)   bands (ev):

   -46.8001 -23.1409 -23.0871 -23.0522 -23.0050  -7.3845  -6.7008  -6.5003
    -5.0398  -4.8388  -4.6987   5.7104   6.1835   6.2856   6.7705   7.1712
     7.7721   8.4920   8.5041   9.1590

          k = 0.0989 0.2966 0.3954 (  4084 PWs)   bands (ev):

   -46.7999 -23.1416 -23.0888 -23.0510 -23.0133  -7.3230  -6.6757  -6.5041
    -5.0452  -4.7928  -4.6862   5.5172   5.8152   6.1212   6.7785   6.9860
     7.7962   8.3468   8.4774   9.2713

          k = 0.0989 0.2966-0.4943 (  4076 PWs)   bands (ev):

   -46.7998 -23.1441 -23.0862 -23.0503 -23.0177  -7.3104  -6.6249  -6.5347
    -5.0490  -4.7723  -4.6820   5.4225   5.6651   6.0969   6.8406   6.8539
     7.8334   8.2837   8.4649   9.2994

          k = 0.0989 0.3954 0.3954 (  4074 PWs)   bands (ev):

   -46.7997 -23.1242 -23.1017 -23.0502 -23.0285  -7.1402  -6.7302  -6.5527
    -5.0300  -4.7522  -4.7042   5.3924   5.5488   5.7822   6.7744   6.8941
     7.7295   8.3554   8.4177   9.4907

          k = 0.0989 0.3954-0.4943 (  4070 PWs)   bands (ev):

   -46.7996 -23.1203 -23.1015 -23.0496 -23.0368  -7.0640  -6.7095  -6.6202
    -5.0242  -4.7318  -4.7126   5.3450   5.3817   5.7250   6.8104   6.8168
     7.7155   8.3603   8.4049   9.5568

          k = 0.0989-0.4943-0.4943 (  4084 PWs)   bands (ev):

   -46.7995 -23.1073 -23.1073 -23.0494 -23.0480  -6.8853  -6.7408  -6.7408
    -5.0130  -4.7190  -4.7190   5.2675   5.2845   5.6267   6.7996   6.7996
     7.6773   8.3937   8.3937   9.6370

          k = 0.1977 0.1977 0.1977 (  4079 PWs)   bands (ev):

   -46.8005 -23.1360 -23.0682 -23.0682 -22.9991  -7.4425  -6.6157  -6.6157
    -4.9926  -4.9926  -4.7276   6.0027   6.6240   6.6240   7.2236   7.2236
     7.5432   8.7760   8.7760   8.9424

          k = 0.1977 0.1977 0.2966 (  4083 PWs)   bands (ev):

   -46.8002 -23.1398 -23.0743 -23.0673 -23.0017  -7.3872  -6.6158  -6.5563
    -5.0542  -4.9207  -4.6913   5.7955   6.3502   6.6152   6.8200   6.9191
     7.4455   8.7259   8.7520   8.9996

          k = 0.1977 0.1977 0.3954 (  4075 PWs)   bands (ev):

   -46.7999 -23.1489 -23.0702 -23.0666 -23.0066  -7.3766  -6.5712  -6.5041
    -5.1083  -4.8403  -4.6884   5.5610   6.1027   6.5367   6.5760   6.7615
     7.5027   8.6835   8.7054   8.9786

          k = 0.1977 0.1977-0.4943 (  4080 PWs)   bands (ev):

   -46.7999 -23.1534 -23.0668 -23.0663 -23.0094  -7.3801  -6.5442  -6.4830
    -5.1301  -4.7969  -4.7008   5.4426   6.0229   6.4528   6.5420   6.7291
     7.5322   8.6688   8.6799   8.9590

          k = 0.1977 0.2966 0.2966 (  4067 PWs)   bands (ev):

   -46.7999 -23.1315 -23.0863 -23.0687 -23.0084  -7.2624  -6.6302  -6.5116
    -5.0710  -4.9299  -4.6937   5.6773   6.1907   6.3615   6.5186   6.8215
     7.1393   8.7271   8.8159   9.1892

          k = 0.1977 0.2966 0.3954 (  4084 PWs)   bands (ev):

   -46.7997 -23.1323 -23.0880 -23.0670 -23.0172  -7.1843  -6.6136  -6.4720
    -5.1218  -4.8696  -4.7284   5.5215   5.8884   6.1463   6.4850   6.6580
     7.1465   8.7269   8.8111   9.2918

          k = 0.1977 0.2966-0.4943 (  4074 PWs)   bands (ev):

   -46.7996 -23.1350 -23.0855 -23.0656 -23.0220  -7.1637  -6.5887  -6.4638
    -5.1467  -4.7971  -4.7863   5.4212   5.7758   6.1036   6.4818   6.5893
     7.1677   8.7417   8.7868   9.3185

          k = 0.1977 0.3954 0.3954 (  4078 PWs)   bands (ev):

   -46.7994 -23.1179 -23.1009 -23.0658 -23.0296  -7.0005  -6.6420  -6.4843
    -5.1208  -4.8763  -4.7778   5.4327   5.6827   5.7878   6.4794   6.5878
     7.0371   8.7693   8.8357   9.5068

          k = 0.1977 0.3954-0.4943 (  4080 PWs)   bands (ev):

   -46.7993 -23.1160 -23.1007 -23.0649 -23.0363  -6.9206  -6.6298  -6.5236
    -5.1213  -4.8399  -4.8308   5.3511   5.5703   5.7314   6.5021   6.5321
     7.0204   8.8080   8.8211   9.5745

          k = 0.1977-0.4943-0.4943 (  4084 PWs)   bands (ev):

   -46.7993 -23.1065 -23.1065 -23.0647 -23.0440  -6.7309  -6.6465  -6.6465
    -5.0993  -4.8549  -4.8549   5.2742   5.4972   5.6310   6.5128   6.5128
     6.9803   8.8347   8.8347   9.6574

          k = 0.2966 0.2966 0.2966 (  4056 PWs)   bands (ev):

   -46.7996 -23.1208 -23.0853 -23.0853 -23.0154  -7.1118  -6.5311  -6.5311
    -5.0545  -5.0545  -4.7289   5.6291   6.2012   6.2012   6.4465   6.5296
     6.5296   8.9658   8.9658   9.2908

          k = 0.2966 0.2966 0.3954 (  4078 PWs)   bands (ev):

   -46.7994 -23.1196 -23.0883 -23.0846 -23.0240  -6.9950  -6.5449  -6.4370
    -5.1692  -4.9877  -4.8004   5.5154   5.9160   6.1506   6.2156   6.3397
     6.5948   9.0042   9.1108   9.3800

          k = 0.2966 0.2966-0.4943 (  4098 PWs)   bands (ev):

   -46.7993 -23.1225 -23.0848 -23.0843 -23.0285  -6.9537  -6.5470  -6.3963
    -5.2178  -4.9144  -4.8734   5.4086   5.8521   6.0605   6.2406   6.2556
     6.6307   9.0134   9.1562   9.4063

          k = 0.2966 0.3954 0.3954 (  4075 PWs)   bands (ev):

   -46.7991 -23.1097 -23.0999 -23.0847 -23.0317  -6.8114  -6.5135  -6.4101
    -5.1992  -5.0487  -4.8979   5.4413   5.7954   5.8702   6.1679   6.3276
     6.3720   9.1679   9.2187   9.5355

          k = 0.2966 0.3954-0.4943 (  4080 PWs)   bands (ev):

   -46.7991 -23.1107 -23.0997 -23.0838 -23.0356  -6.7224  -6.5174  -6.4011
    -5.2264  -5.0116  -4.9793   5.3434   5.7389   5.8013   6.1954   6.2430
     6.3858   9.2064   9.2586   9.6001

          k = 0.2966-0.4943-0.4943 (  4064 PWs)   bands (ev):

   -46.7990 -23.1055 -23.1055 -23.0835 -23.0389  -6.5311  -6.5075  -6.5075
    -5.2027  -5.0450  -5.0450   5.2653   5.6362   5.7611   6.2500   6.2673
     6.2673   9.2760   9.2760   9.6830

          k = 0.3954 0.3954 0.3954 (  4068 PWs)   bands (ev):

   -46.7989 -23.1033 -23.0991 -23.0991 -23.0340  -6.6240  -6.3833  -6.3833
    -5.2142  -5.2142  -5.0349   5.3696   5.8028   5.8028   5.9861   6.1614
     6.1614   9.4436   9.4436   9.5919

          k = 0.3954 0.3954-0.4943 (  4084 PWs)   bands (ev):

   -46.7988 -23.1064 -23.0990 -23.0988 -23.0350  -6.5167  -6.4099  -6.3230
    -5.2879  -5.1664  -5.1372   5.2770   5.7182   5.8062   5.9655   6.1043
     6.1724   9.4918   9.5410   9.6424

          k = 0.3954-0.4943-0.4943 (  4080 PWs)   bands (ev):

   -46.7987 -23.1047 -23.1047 -23.0986 -23.0348  -6.3631  -6.3631  -6.3612
    -5.2840  -5.2301  -5.2301   5.2017   5.6404   5.7725   5.9758   6.1112
     6.1112   9.5953   9.5953   9.7039

          k =-0.4943-0.4943-0.4943 (  4032 PWs)   bands (ev):

   -46.7987 -23.1043 -23.1043 -23.1043 -23.0333  -6.2942  -6.2942  -6.2942
    -5.3145  -5.3145  -5.3145   5.1349   5.6420   5.6420   6.0582   6.0582
     6.0582   9.7120   9.7120   9.7120

     highest occupied level (ev):     9.7120

!    total energy              =    -287.01638940 Ry
     estimated scf accuracy    <          1.2E-09 Ry

     The total energy is the sum of the following terms:
     one-electron contribution =     -79.45301646 Ry
     hartree contribution      =      61.59528371 Ry
     xc contribution           =     -58.41561636 Ry
     ewald contribution        =    -210.74304028 Ry

     convergence has been achieved in  13 iterations

     negative rho (up, down):  6.766E-02 0.000E+00

     Forces acting on atoms (cartesian axes, Ry/au):

     atom    1 type  1   force =     0.00000000    0.00000000    0.00000000
     atom    2 type  2   force =     0.00000000    0.00000000   -0.00000000
     atom    3 type  3   force =     0.00000000    0.00000000   -0.00000000
     atom    4 type  3   force =     0.00000000    0.00000000    0.00000000
     atom    5 type  3   force =     0.00000000    0.00000000    0.00000000

     Total force =     0.000000     Total SCF correction =     0.000000


     Computing stress (Cartesian axis) and pressure


     negative rho (up, down):  6.766E-02 0.000E+00
          total   stress  (Ry/bohr**3)                   (kbar)     P=        0.22
   0.00000147   0.00000000   0.00000000            0.22        0.00        0.00
   0.00000000   0.00000147   0.00000000            0.00        0.22        0.00
   0.00000000   0.00000000   0.00000147            0.00        0.00        0.22


     Writing all to output data dir ./out/SrTiO3.save/ :
     XML data file, charge density, pseudopotentials, collected wavefunctions
 
     init_run     :      0.63s CPU      9.62s WALL (       2 calls)
     electrons    :      6.76s CPU     16.24s WALL (       4 calls)
     update_pot   :      0.09s CPU      0.10s WALL (       2 calls)
     forces       :      0.28s CPU      0.31s WALL (       4 calls)
     stress       :      0.54s CPU      0.57s WALL (       4 calls)

     Called by init_run:
     wfcinit      :      0.08s CPU      2.46s WALL (       2 calls)
     potinit      :      0.09s CPU      1.27s WALL (       2 calls)
     hinit0       :      0.38s CPU      5.67s WALL (       2 calls)

     Called by electrons:
     c_bands      :      3.87s CPU     10.30s WALL (      38 calls)
     sum_band     :      1.09s CPU      2.27s WALL (      38 calls)
     v_of_rho     :      1.25s CPU      1.42s WALL (      41 calls)
     newd         :      0.45s CPU      0.60s WALL (      41 calls)
     mix_rho      :      0.10s CPU      0.66s WALL (      38 calls)

     Called by c_bands:
     init_us_2    :      0.15s CPU      0.16s WALL (     258 calls)
     cegterg      :      2.25s CPU      8.61s WALL (     114 calls)

     Called by *egterg:
     cdiaghg      :      0.21s CPU      7.47s WALL (     494 calls)
     h_psi        :      1.63s CPU      3.07s WALL (     509 calls)
     s_psi        :      0.11s CPU      0.11s WALL (     509 calls)
     g_psi        :      0.01s CPU      0.01s WALL (     389 calls)

     Called by h_psi:
     h_psi:calbec :      0.13s CPU      1.25s WALL (     509 calls)
     vloc_psi     :      1.37s CPU      1.67s WALL (     509 calls)
                                        0.00s GPU  (     509 calls)
     add_vuspsi   :      0.12s CPU      0.13s WALL (     509 calls)

     General routines
     calbec       :      0.23s CPU      1.35s WALL (     827 calls)
     fft          :      0.64s CPU      4.01s WALL (     628 calls)
     ffts         :      0.02s CPU      1.15s WALL (      79 calls)
     fftw         :      1.40s CPU      1.71s WALL (   16094 calls)
     interpolate  :      0.06s CPU      1.19s WALL (      41 calls)
 
     Parallel routines
 
     PWSCF        :      8.54s CPU     29.46s WALL

 
   This run was terminated on:  17:27:47  10Jul2025            

=------------------------------------------------------------------------------=
   JOB DONE.
=------------------------------------------------------------------------------=
