
     Program POST-PROC v.7.1 starts on  4Jun2026 at 12:42:18 

     This program is part of the open-source Quantum ESPRESSO suite
     for quantum simulation of materials; please cite
         "P. Giannozzi et al., J. Phys.:Condens. Matter 21 395502 (2009);
         "P. Giannozzi et al., J. Phys.:Condens. Matter 29 465901 (2017);
         "P. Giannozzi et al., J. Chem. Phys. 152 154105 (2020);
          URL http://www.quantum-espresso.org", 
     in publications or presentations arising from this work. More details at
     http://www.quantum-espresso.org/quote

     Parallel version (MPI & OpenMP), running on       7 processor cores
     Number of MPI processes:                 7
     Threads/MPI process:                     1

     MPI processes distributed on     7 nodes
     R & G space division:  proc/nbgrp/npool/nimage =       7
     223958 MiB available memory on the printing compute node when the environment starts
 

     Reading xml data from directory:

     ./out/SrTiO3.save/

     IMPORTANT: XC functional enforced from input :
     Exchange-correlation= PBE
                           (   1   4   3   4   0   0   0)
     Any further DFT definition will be discarded
     Please, verify this is what you really want

 
     Parallelization info
     --------------------
     sticks:   dense  smooth     PW     G-vecs:    dense   smooth      PW
     Min         441     175     51                18417     4647     751
     Max         443     177     53                18418     4648     751
     Sum        3093    1229    365               128923    32531    5257
 
     Using Slab Decomposition
 

     Check: negative core charge=   -0.000002

     negative rho (up, down):  6.766E-02 0.000E+00

     Calling punch_plot, plot_num =   0
     Writing data to file  SrTiO3_valence
     Reading data from file  SrTiO3_valence

     Writing data to be plotted to file STO_valence.cube
     Plot Type: 3D                     Output format: Gaussian cube
 
     POST-PROC    :      0.89s CPU      1.65s WALL

 
   This run was terminated on:  12:42:20   4Jun2026            

=------------------------------------------------------------------------------=
   JOB DONE.
=------------------------------------------------------------------------------=
