
     Program PWSCF v.7.1 starts on 11Jun2026 at  3:35:33 

     This program is part of the open-source Quantum ESPRESSO suite
     for quantum simulation of materials; please cite
         "P. Giannozzi et al., J. Phys.:Condens. Matter 21 395502 (2009);
         "P. Giannozzi et al., J. Phys.:Condens. Matter 29 465901 (2017);
         "P. Giannozzi et al., J. Chem. Phys. 152 154105 (2020);
          URL http://www.quantum-espresso.org", 
     in publications or presentations arising from this work. More details at
     http://www.quantum-espresso.org/quote

     Parallel version (MPI & OpenMP), running on       7 processor cores
     Number of MPI processes:                 7
     Threads/MPI process:                     1

     MPI processes distributed on     7 nodes
     223669 MiB available memory on the printing compute node when the environment starts
 
     Waiting for input...
     Reading input from standard input
Warning: card &CELL ignored
Warning: card / ignored
Warning: card &FCP ignored
Warning: card / ignored
Warning: card &RISM ignored
Warning: card / ignored

     Current dimensions of program PWSCF are:
     Max number of different atomic species (ntypx) = 10
     Max number of k-points (npk) =  40000
     Max angular momentum in pseudopotentials (lmaxx) =  4
     Message from routine setup:
     using ibrav=0 with symmetry is DISCOURAGED, use correct ibrav instead
 
     R & G space division:  proc/nbgrp/npool/nimage =       7
     Subspace diagonalization in iterative solution of the eigenvalue problem:
     a serial algorithm will be used

 
     Parallelization info
     --------------------
     sticks:   dense  smooth     PW     G-vecs:    dense   smooth      PW
     Min          84      34     11                 4688     1182     224
     Max          86      35     13                 4696     1191     229
     Sum         595     241     85                32835     8307    1589
 
     Using Slab Decomposition
 


     bravais-lattice index     =            0
     lattice parameter (alat)  =       4.6633  a.u.
     unit-cell volume          =     242.0070 (a.u.)^3
     number of atoms/cell      =            4
     number of atomic types    =            1
     number of electrons       =        16.00
     number of Kohn-Sham states=           12
     kinetic-energy cutoff     =      40.0000  Ry
     charge density cutoff     =     400.0000  Ry
     scf convergence threshold =      1.0E-08
     mixing beta               =       0.3000
     number of iterations used =            8  plain     mixing
     Exchange-correlation= SLA  PW   PBE  PBE
                           (   1   4   3   4   0   0   0)

     celldm(1)=   4.663315  celldm(2)=   0.000000  celldm(3)=   0.000000
     celldm(4)=   0.000000  celldm(5)=   0.000000  celldm(6)=   0.000000

     crystal axes: (cart. coord. in units of alat)
               a(1) = (   1.000000   0.000000   0.000000 )  
               a(2) = (  -0.500000   0.866025   0.000000 )  
               a(3) = (   0.000000   0.000000   2.755580 )  

     reciprocal axes: (cart. coord. in units 2 pi/alat)
               b(1) = (  1.000000  0.577350  0.000000 )  
               b(2) = (  0.000000  1.154701  0.000000 )  
               b(3) = (  0.000000  0.000000  0.362900 )  


     PseudoPot. # 1 for C  read from file:
     /home/k0750/k075000/PSPOT/c_pbe_v1.2.uspp.F.UPF
     MD5 check sum: d1aef80898a10debaa0f26306b886e00
     Pseudo is Ultrasoft + core correction, Zval =  4.0
     Generated by new atomic code, or converted to UPF format
     Using radial grid of  721 points,  4 beta functions with: 
                l(1) =   0
                l(2) =   0
                l(3) =   1
                l(4) =   1
     Q(r) pseudized with  8 coefficients,  rinner =    1.100   1.100   1.100


     atomic species   valence    mass     pseudopotential
        C              4.00    12.01100     C ( 1.00)

      8 Sym. Ops., with inversion, found ( 4 have fractional translation)



   Cartesian axes

     site n.     atom                  positions (alat units)
         1           C   tau(   1) = (   0.0000000   0.0000000   2.0666850  )
         2           C   tau(   2) = (   0.0000000   0.0000000   0.6888950  )
         3           C   tau(   3) = (  -0.0000050   0.5773532   2.0666850  )
         4           C   tau(   4) = (   0.5000050   0.2886722   0.6888950  )

     number of k points=   215  Marzari-Vanderbilt smearing, width (Ry)=  0.0100

     Number of k-points >= 100: set verbosity='high' to print them.

     Dense  grid:    32835 G-vectors     FFT dimensions: (  30,  30,  90)

     Smooth grid:     8307 G-vectors     FFT dimensions: (  20,  20,  54)

     Estimated max dynamical RAM per process >      12.90 MB

     Estimated total dynamical RAM >      90.31 MB

     Initial potential from superposition of free atoms

     starting charge      15.9998, renormalised to      16.0000
     Starting wfcs are   16 randomized atomic wfcs

     total cpu time spent up to now is        0.5 secs

     Self-consistent Calculation

     iteration #  1     ecut=    40.00 Ry     beta= 0.30
     Davidson diagonalization with overlap
     ethr =  1.00E-02,  avg # of iterations =  2.7

     total cpu time spent up to now is        1.7 secs

     total energy              =     -46.00348169 Ry
     estimated scf accuracy    <       0.36353022 Ry

     iteration #  2     ecut=    40.00 Ry     beta= 0.30
     Davidson diagonalization with overlap
     ethr =  2.27E-03,  avg # of iterations =  1.1

     total cpu time spent up to now is        2.5 secs

     total energy              =     -45.93609253 Ry
     estimated scf accuracy    <       0.13223707 Ry

     iteration #  3     ecut=    40.00 Ry     beta= 0.30
     Davidson diagonalization with overlap
     ethr =  8.26E-04,  avg # of iterations =  3.9

     total cpu time spent up to now is        3.7 secs

     total energy              =     -45.95804047 Ry
     estimated scf accuracy    <       0.00265666 Ry

     iteration #  4     ecut=    40.00 Ry     beta= 0.30
     Davidson diagonalization with overlap
     ethr =  1.66E-05,  avg # of iterations =  5.3

     total cpu time spent up to now is        5.0 secs

     total energy              =     -45.95702356 Ry
     estimated scf accuracy    <       0.00433502 Ry

     iteration #  5     ecut=    40.00 Ry     beta= 0.30
     Davidson diagonalization with overlap
     ethr =  1.66E-05,  avg # of iterations =  2.9

     total cpu time spent up to now is        6.1 secs

     total energy              =     -45.95769422 Ry
     estimated scf accuracy    <       0.00000921 Ry

     iteration #  6     ecut=    40.00 Ry     beta= 0.30
     Davidson diagonalization with overlap
     ethr =  5.76E-08,  avg # of iterations =  3.5

     total cpu time spent up to now is        7.2 secs

     total energy              =     -45.95769654 Ry
     estimated scf accuracy    <       0.00000267 Ry

     iteration #  7     ecut=    40.00 Ry     beta= 0.30
     Davidson diagonalization with overlap
     ethr =  1.67E-08,  avg # of iterations =  2.0

     total cpu time spent up to now is        8.1 secs

     total energy              =     -45.95769696 Ry
     estimated scf accuracy    <       0.00000022 Ry

     iteration #  8     ecut=    40.00 Ry     beta= 0.30
     Davidson diagonalization with overlap
     ethr =  1.35E-09,  avg # of iterations =  2.0

     total cpu time spent up to now is        9.0 secs

     total energy              =     -45.95769709 Ry
     estimated scf accuracy    <       0.00000003 Ry

     iteration #  9     ecut=    40.00 Ry     beta= 0.30
     Davidson diagonalization with overlap
     ethr =  1.68E-10,  avg # of iterations =  1.9

     total cpu time spent up to now is        9.9 secs

     End of self-consistent calculation

     Number of k-points >= 100: set verbosity='high' to print the bands.

     the Fermi energy is     6.8391 ev

!    total energy              =     -45.95769719 Ry
     estimated scf accuracy    <          4.4E-09 Ry
     smearing contrib. (-TS)   =      -0.00009344 Ry
     internal energy E=F+TS    =     -45.95760375 Ry

     The total energy is F=E-TS. E is the sum of the following terms:
     one-electron contribution =     -12.01819592 Ry
     hartree contribution      =      13.86297904 Ry
     xc contribution           =     -14.53873709 Ry
     ewald contribution        =     -33.26364979 Ry

     convergence has been achieved in   9 iterations

     Forces acting on atoms (cartesian axes, Ry/au):

     atom    1 type  1   force =    -0.00002451    0.00001415    0.00000000
     atom    2 type  1   force =     0.00002451   -0.00001415    0.00000000
     atom    3 type  1   force =     0.00002439   -0.00001408    0.00000000
     atom    4 type  1   force =    -0.00002439    0.00001408    0.00000000

     Total force =     0.000056     Total SCF correction =     0.000000


     Computing stress (Cartesian axis) and pressure

          total   stress  (Ry/bohr**3)                   (kbar)     P=        0.32
  -0.00008587  -0.00000007   0.00000000          -12.63       -0.01        0.00
  -0.00000007  -0.00008594   0.00000000           -0.01      -12.64        0.00
   0.00000000   0.00000000   0.00017837            0.00        0.00       26.24


     Writing all to output data dir ./tmp/graphite_d_3p40000.save/
 
     init_run     :      0.42s CPU      0.48s WALL (       1 calls)
     electrons    :      8.73s CPU      9.35s WALL (       1 calls)
     forces       :      0.09s CPU      0.09s WALL (       1 calls)
     stress       :      0.17s CPU      0.17s WALL (       1 calls)

     Called by init_run:
     wfcinit      :      0.37s CPU      0.38s WALL (       1 calls)
     potinit      :      0.01s CPU      0.03s WALL (       1 calls)
     hinit0       :      0.02s CPU      0.05s WALL (       1 calls)

     Called by electrons:
     c_bands      :      7.49s CPU      8.01s WALL (       9 calls)
     sum_band     :      1.16s CPU      1.22s WALL (       9 calls)
     v_of_rho     :      0.04s CPU      0.07s WALL (      10 calls)
     newd         :      0.02s CPU      0.02s WALL (      10 calls)
     mix_rho      :      0.01s CPU      0.01s WALL (       9 calls)

     Called by c_bands:
     init_us_2    :      0.09s CPU      0.09s WALL (    4515 calls)
     init_us_2:cp :      0.08s CPU      0.09s WALL (    4515 calls)
     cegterg      :      7.11s CPU      7.43s WALL (    1935 calls)

     Called by *egterg:
     cdiaghg      :      0.92s CPU      0.95s WALL (    7412 calls)
     h_psi        :      5.47s CPU      5.73s WALL (    7627 calls)
     s_psi        :      0.11s CPU      0.11s WALL (    7627 calls)
     g_psi        :      0.02s CPU      0.02s WALL (    5477 calls)

     Called by h_psi:
     h_psi:calbec :      0.35s CPU      0.36s WALL (    7627 calls)
     vloc_psi     :      4.97s CPU      5.21s WALL (    7627 calls)
     add_vuspsi   :      0.11s CPU      0.12s WALL (    7627 calls)

     General routines
     calbec       :      0.51s CPU      0.53s WALL (   10637 calls)
     fft          :      0.04s CPU      0.10s WALL (     153 calls)
     ffts         :      0.00s CPU      0.01s WALL (      19 calls)
     fftw         :      5.49s CPU      5.74s WALL (  151956 calls)
     interpolate  :      0.00s CPU      0.01s WALL (      10 calls)
 
     Parallel routines
 
     PWSCF        :     10.05s CPU     11.24s WALL

 
   This run was terminated on:   3:35:44  11Jun2026            

=------------------------------------------------------------------------------=
   JOB DONE.
=------------------------------------------------------------------------------=
