
     Program PWSCF v.7.1 starts on 11Jun2026 at  3:50:44 

     This program is part of the open-source Quantum ESPRESSO suite
     for quantum simulation of materials; please cite
         "P. Giannozzi et al., J. Phys.:Condens. Matter 21 395502 (2009);
         "P. Giannozzi et al., J. Phys.:Condens. Matter 29 465901 (2017);
         "P. Giannozzi et al., J. Chem. Phys. 152 154105 (2020);
          URL http://www.quantum-espresso.org", 
     in publications or presentations arising from this work. More details at
     http://www.quantum-espresso.org/quote

     Parallel version (MPI & OpenMP), running on       7 processor cores
     Number of MPI processes:                 7
     Threads/MPI process:                     1

     MPI processes distributed on     7 nodes
     223228 MiB available memory on the printing compute node when the environment starts
 
     Waiting for input...
     Reading input from standard input
Warning: card &CELL ignored
Warning: card / ignored
Warning: card &FCP ignored
Warning: card / ignored
Warning: card &RISM ignored
Warning: card / ignored

     Current dimensions of program PWSCF are:
     Max number of different atomic species (ntypx) = 10
     Max number of k-points (npk) =  40000
     Max angular momentum in pseudopotentials (lmaxx) =  4

     IMPORTANT: XC functional enforced from input :
     Exchange-correlation= VDW-DF2-B86R
                           (   1   4  26   0   2   0   0)
     Any further DFT definition will be discarded
     Please, verify this is what you really want

     Message from routine setup:
     using ibrav=0 with symmetry is DISCOURAGED, use correct ibrav instead
 
     R & G space division:  proc/nbgrp/npool/nimage =       7
     Subspace diagonalization in iterative solution of the eigenvalue problem:
     a serial algorithm will be used

 
     Parallelization info
     --------------------
     sticks:   dense  smooth     PW     G-vecs:    dense   smooth      PW
     Min          85      34     12                 7539     1908     364
     Max          85      35     13                 7551     1921     373
     Sum         595     241     85                52795    13391    2567
 
     Using Slab Decomposition
 


     bravais-lattice index     =            0
     lattice parameter (alat)  =       4.6633  a.u.
     unit-cell volume          =     391.4819 (a.u.)^3
     number of atoms/cell      =            4
     number of atomic types    =            1
     number of electrons       =        16.00
     number of Kohn-Sham states=           12
     kinetic-energy cutoff     =      40.0000  Ry
     charge density cutoff     =     400.0000  Ry
     scf convergence threshold =      1.0E-08
     mixing beta               =       0.3000
     number of iterations used =            8  plain     mixing
     Exchange-correlation= VDW-DF2-B86R
                           (   1   4  26   0   2   0   0)

     celldm(1)=   4.663315  celldm(2)=   0.000000  celldm(3)=   0.000000
     celldm(4)=   0.000000  celldm(5)=   0.000000  celldm(6)=   0.000000

     crystal axes: (cart. coord. in units of alat)
               a(1) = (   1.000000   0.000000   0.000000 )  
               a(2) = (  -0.500000   0.866025   0.000000 )  
               a(3) = (   0.000000   0.000000   4.457556 )  

     reciprocal axes: (cart. coord. in units 2 pi/alat)
               b(1) = (  1.000000  0.577350  0.000000 )  
               b(2) = (  0.000000  1.154701  0.000000 )  
               b(3) = (  0.000000  0.000000  0.224338 )  


     PseudoPot. # 1 for C  read from file:
     /home/k0750/k075000/PSPOT/c_pbe_v1.2.uspp.F.UPF
     MD5 check sum: d1aef80898a10debaa0f26306b886e00
     Pseudo is Ultrasoft + core correction, Zval =  4.0
     Generated by new atomic code, or converted to UPF format
     Using radial grid of  721 points,  4 beta functions with: 
                l(1) =   0
                l(2) =   0
                l(3) =   1
                l(4) =   1
     Q(r) pseudized with  8 coefficients,  rinner =    1.100   1.100   1.100


     atomic species   valence    mass     pseudopotential
        C              4.00    12.01100     C ( 1.00)

      8 Sym. Ops., with inversion, found ( 4 have fractional translation)



   Cartesian axes

     site n.     atom                  positions (alat units)
         1           C   tau(   1) = (   0.0000000   0.0000000   3.3431670  )
         2           C   tau(   2) = (   0.0000000   0.0000000   1.1143890  )
         3           C   tau(   3) = (  -0.0000050   0.5773532   3.3431670  )
         4           C   tau(   4) = (   0.5000050   0.2886722   1.1143890  )

     number of k points=   215  Marzari-Vanderbilt smearing, width (Ry)=  0.0100

     Number of k-points >= 100: set verbosity='high' to print them.

     Dense  grid:    52795 G-vectors     FFT dimensions: (  30,  30, 144)

     Smooth grid:    13391 G-vectors     FFT dimensions: (  20,  20,  90)

     Estimated max dynamical RAM per process >      20.54 MB

     Estimated total dynamical RAM >     143.75 MB

     Initial potential from superposition of free atoms

     starting charge      15.9998, renormalised to      16.0000


     %%%%%%%%%%%%%%%%%%%%%%%%%%%%%%%%%%%%%%%%%%%%%%%%%%%%%%%%%%%%%%%%%%%%%%%%
     %                                                                      %
     % You are using vdW-DF, which was implemented by the Thonhauser group. %
     % Please cite the following two papers that made this development      %
     % possible and the two reviews that describe the various versions:     %
     %                                                                      %
     %   T. Thonhauser et al., PRL 115, 136402 (2015).                      %
     %   T. Thonhauser et al., PRB 76, 125112 (2007).                       %
     %   K. Berland et al., Rep. Prog. Phys. 78, 066501 (2015).             %
     %   D.C. Langreth et al., J. Phys.: Condens. Matter 21, 084203 (2009). %
     %                                                                      %
     % If you are calculating stress with vdW-DF, please also cite:         %
     %                                                                      %
     %   R. Sabatini et al., J. Phys.: Condens. Matter 24, 424209 (2012).   %
     %                                                                      %
     %%%%%%%%%%%%%%%%%%%%%%%%%%%%%%%%%%%%%%%%%%%%%%%%%%%%%%%%%%%%%%%%%%%%%%%%

     %%%%%%%%%%%%%%%%%%%%%%%%%%%%%%%%%%%%%%%%%%%%%%%%%%%%%%%%%%%%%%%%%%%%%%%%
     %                                                                      %
     %  vdW-DF NEWS:                                                        %
     %                                                                      %
     %  * vdW-DF3 is now available. DOI: 10.1021/acs.jctc.0c00471           %
     %    use with input_dft = 'vdW-DF3-opt1' or 'vdW-DF3-opt2'             %
     %                                                                      %
     %  * Unscreened and range-separated vdW-DF hybrid functionals          %
     %    DOI: 10.1063/1.4986522 and 10.1088/1361-648X/ac2ad2               %
     %    use with input_dft = 'vdW-DF-cx0' (etc) and 'vdW-DF-ahcx'         %
     %                                                                      %
     %%%%%%%%%%%%%%%%%%%%%%%%%%%%%%%%%%%%%%%%%%%%%%%%%%%%%%%%%%%%%%%%%%%%%%%%


     Starting wfcs are   16 randomized atomic wfcs

     total cpu time spent up to now is       13.7 secs

     Self-consistent Calculation

     iteration #  1     ecut=    40.00 Ry     beta= 0.30
     Davidson diagonalization with overlap
     ethr =  1.00E-02,  avg # of iterations =  2.9

     total cpu time spent up to now is       15.4 secs

     total energy              =     -46.03473138 Ry
     estimated scf accuracy    <       0.38445294 Ry

     iteration #  2     ecut=    40.00 Ry     beta= 0.30
     Davidson diagonalization with overlap
     ethr =  2.40E-03,  avg # of iterations =  2.0

     total cpu time spent up to now is       16.9 secs

     total energy              =     -45.96304723 Ry
     estimated scf accuracy    <       0.13784458 Ry

     iteration #  3     ecut=    40.00 Ry     beta= 0.30
     Davidson diagonalization with overlap
     ethr =  8.62E-04,  avg # of iterations =  4.4

     total cpu time spent up to now is       18.8 secs

     total energy              =     -45.99008695 Ry
     estimated scf accuracy    <       0.00411301 Ry

     iteration #  4     ecut=    40.00 Ry     beta= 0.30
     Davidson diagonalization with overlap
     ethr =  2.57E-05,  avg # of iterations =  5.8

     total cpu time spent up to now is       20.8 secs

     total energy              =     -45.98692865 Ry
     estimated scf accuracy    <       0.01127824 Ry

     iteration #  5     ecut=    40.00 Ry     beta= 0.30
     Davidson diagonalization with overlap
     ethr =  2.57E-05,  avg # of iterations =  3.1

     total cpu time spent up to now is       22.6 secs

     total energy              =     -45.98881761 Ry
     estimated scf accuracy    <       0.00000231 Ry

     iteration #  6     ecut=    40.00 Ry     beta= 0.30
     Davidson diagonalization with overlap
     ethr =  1.44E-08,  avg # of iterations =  4.9

     total cpu time spent up to now is       24.6 secs

     total energy              =     -45.98882338 Ry
     estimated scf accuracy    <       0.00000106 Ry

     iteration #  7     ecut=    40.00 Ry     beta= 0.30
     Davidson diagonalization with overlap
     ethr =  6.64E-09,  avg # of iterations =  2.0

     total cpu time spent up to now is       26.1 secs

     total energy              =     -45.98882375 Ry
     estimated scf accuracy    <       0.00000039 Ry

     iteration #  8     ecut=    40.00 Ry     beta= 0.30
     Davidson diagonalization with overlap
     ethr =  2.43E-09,  avg # of iterations =  1.1

     total cpu time spent up to now is       27.2 secs

     total energy              =     -45.98882387 Ry
     estimated scf accuracy    <       0.00000010 Ry

     iteration #  9     ecut=    40.00 Ry     beta= 0.30
     Davidson diagonalization with overlap
     ethr =  5.97E-10,  avg # of iterations =  2.0

     total cpu time spent up to now is       28.7 secs

     End of self-consistent calculation

     Number of k-points >= 100: set verbosity='high' to print the bands.

     the Fermi energy is     2.5503 ev

!    total energy              =     -45.98882400 Ry
     estimated scf accuracy    <          1.6E-10 Ry
     smearing contrib. (-TS)   =      -0.00018095 Ry
     internal energy E=F+TS    =     -45.98864305 Ry

     The total energy is F=E-TS. E is the sum of the following terms:
     one-electron contribution =     -63.44246887 Ry
     hartree contribution      =      37.01621781 Ry
     xc contribution           =     -14.54528647 Ry
     ewald contribution        =      -5.01710553 Ry

     convergence has been achieved in   9 iterations

     Forces acting on atoms (cartesian axes, Ry/au):

     atom    1 type  1   force =    -0.00002014    0.00001163    0.00000000
     atom    2 type  1   force =     0.00002014   -0.00001163    0.00000000
     atom    3 type  1   force =     0.00002011   -0.00001161    0.00000000
     atom    4 type  1   force =    -0.00002011    0.00001161    0.00000000

     Total force =     0.000046     Total SCF correction =     0.000000


     Computing stress (Cartesian axis) and pressure

          total   stress  (Ry/bohr**3)                   (kbar)     P=       -7.55
  -0.00005080   0.00000000   0.00000000           -7.47        0.00        0.00
   0.00000000  -0.00005080   0.00000000            0.00       -7.47        0.00
   0.00000000   0.00000000  -0.00005233            0.00        0.00       -7.70


     Writing all to output data dir ./tmp/graphite_d_5p50000.save/
 
     init_run     :     13.37s CPU     13.62s WALL (       1 calls)
     electrons    :     13.95s CPU     15.06s WALL (       1 calls)
     forces       :      0.21s CPU      0.21s WALL (       1 calls)
     stress       :      0.47s CPU      0.54s WALL (       1 calls)

     Called by init_run:
     wfcinit      :      0.59s CPU      0.65s WALL (       1 calls)
     potinit      :     12.71s CPU     12.84s WALL (       1 calls)
     hinit0       :      0.03s CPU      0.08s WALL (       1 calls)

     Called by electrons:
     c_bands      :     11.17s CPU     11.80s WALL (       9 calls)
     sum_band     :      1.97s CPU      2.04s WALL (       9 calls)
     v_of_rho     :     13.40s CPU     13.91s WALL (      10 calls)
     newd         :      0.04s CPU      0.05s WALL (      10 calls)
     mix_rho      :      0.01s CPU      0.01s WALL (       9 calls)
     vdW_kernel   :     12.66s CPU     12.70s WALL (       1 calls)

     Called by c_bands:
     init_us_2    :      0.13s CPU      0.13s WALL (    4515 calls)
     init_us_2:cp :      0.12s CPU      0.13s WALL (    4515 calls)
     cegterg      :     10.66s CPU     11.07s WALL (    1935 calls)

     Called by *egterg:
     cdiaghg      :      1.01s CPU      1.04s WALL (    7970 calls)
     h_psi        :      8.69s CPU      9.10s WALL (    8185 calls)
     s_psi        :      0.16s CPU      0.17s WALL (    8185 calls)
     g_psi        :      0.04s CPU      0.04s WALL (    6035 calls)

     Called by h_psi:
     h_psi:calbec :      0.42s CPU      0.43s WALL (    8185 calls)
     vloc_psi     :      8.05s CPU      8.44s WALL (    8185 calls)
     add_vuspsi   :      0.17s CPU      0.18s WALL (    8185 calls)

     General routines
     calbec       :      0.62s CPU      0.63s WALL (   11195 calls)
     fft          :      0.86s CPU      1.44s WALL (     797 calls)
     ffts         :      0.09s CPU      0.09s WALL (      19 calls)
     fftw         :      8.82s CPU      9.24s WALL (  162140 calls)
     interpolate  :      0.01s CPU      0.01s WALL (      10 calls)
 
     Parallel routines
 
     PWSCF        :     28.69s CPU     30.83s WALL

 
   This run was terminated on:   3:51:15  11Jun2026            

=------------------------------------------------------------------------------=
   JOB DONE.
=------------------------------------------------------------------------------=
