
     Program PWSCF v.7.4.1 starts on 10Jul2025 at 17:55:15 

     This program is part of the open-source Quantum ESPRESSO suite
     for quantum simulation of materials; please cite
         "P. Giannozzi et al., J. Phys.:Condens. Matter 21 395502 (2009);
         "P. Giannozzi et al., J. Phys.:Condens. Matter 29 465901 (2017);
         "P. Giannozzi et al., J. Chem. Phys. 152 154105 (2020);
          URL http://www.quantum-espresso.org", 
     in publications or presentations arising from this work. More details at
     http://www.quantum-espresso.org/quote

     Parallel version (MPI & OpenMP), running on      80 processor cores
     Number of MPI processes:                80
     Threads/MPI process:                     1

     MPI processes distributed on     1 nodes
     3057899 MiB available memory on the printing compute node when the environment starts
 
     Waiting for input...
     Reading input from standard input

     Current dimensions of program PWSCF are:
     Max number of different atomic species (ntypx) = 10
     Max number of k-points (npk) =  40000
     Max angular momentum in pseudopotentials (lmaxx) =  4
     Message from routine setup:
     using ibrav=0 with symmetry is DISCOURAGED, use correct ibrav instead
 
     K-points division:     npool     =      20
     R & G space division:  proc/nbgrp/npool/nimage =       4
     Subspace diagonalization in iterative solution of the eigenvalue problem:
     a serial algorithm will be used

 
     Parallelization info
     --------------------
     sticks:   dense  smooth     PW     G-vecs:    dense   smooth      PW
     Min         267     107     37                11389     2888     573
     Max         268     109     38                11394     2891     576
     Sum        1069     433    151                45563    11561    2297
 
     Using Slab Decomposition
 


     bravais-lattice index     =            0
     lattice parameter (alat)  =       4.7040  a.u.
     unit-cell volume          =     145.4992 (a.u.)^3
     number of atoms/cell      =            2
     number of atomic types    =            1
     number of electrons       =        32.00
     number of Kohn-Sham states=           20
     kinetic-energy cutoff     =      70.0000  Ry
     charge density cutoff     =     700.0000  Ry
     scf convergence threshold =      1.0E-08
     mixing beta               =       0.7000
     number of iterations used =            8  plain     mixing
     energy convergence thresh.=      1.0E-04
     force convergence thresh. =      1.0E-03
     press convergence thresh. =      5.0E-01
     Exchange-correlation=  SLA  PW   PBX  PBC
                           (   1   4   3   4   0   0   0)
     nstep                     =           50


     celldm(1)=   4.703973  celldm(2)=   0.000000  celldm(3)=   0.000000
     celldm(4)=   0.000000  celldm(5)=   0.000000  celldm(6)=   0.000000

     crystal axes: (cart. coord. in units of alat)
               a(1) = (   0.500154  -0.865937   0.000000 )  
               a(2) = (   0.500154   0.865937   0.000000 )  
               a(3) = (   0.000000   0.000000   1.613789 )  

     reciprocal axes: (cart. coord. in units 2 pi/alat)
               b(1) = (  0.999693 -0.577409  0.000000 )  
               b(2) = (  0.999693  0.577409  0.000000 )  
               b(3) = (  0.000000  0.000000  0.619660 )  


     PseudoPot. # 1 for Fe read from file:
     /home/m0049/m004905/PSPOT/fe_pbe_v1.5.uspp.F.UPF
     MD5 check sum: a130daea23fe5165f5d574ae7f82ed95
     Pseudo is Ultrasoft + core correction, Zval = 16.0
     Generated by new atomic code, or converted to UPF format
     Using radial grid of  861 points,  6 beta functions with: 
                l(1) =   0
                l(2) =   0
                l(3) =   1
                l(4) =   1
                l(5) =   2
                l(6) =   2
     Q(r) pseudized with  8 coefficients,  rinner =    1.000   1.000   1.000
                                                       1.000   1.000

     atomic species   valence    mass     pseudopotential
     Fe               16.00    55.84500     Fe( 1.00)

      8 Sym. Ops., with inversion, found ( 4 have fractional translation)



   Cartesian axes

     site n.     atom                  positions (alat units)
         1        Fe     tau(   1) = (   0.0000000   0.0000000   0.0000000  )
         2        Fe     tau(   2) = (   0.5001536  -0.2886456   0.8068944  )

     number of k points=   215  Methfessel-Paxton smearing, width (Ry)=  0.0100

     Number of k-points >= 100: set verbosity='high' to print them.

     Dense  grid:    45563 G-vectors     FFT dimensions: (  45,  45,  64)

     Smooth grid:    11561 G-vectors     FFT dimensions: (  27,  27,  48)

     Estimated max dynamical RAM per process >      14.48 MB

     Estimated total dynamical RAM >     947.11 MB

     Check: negative core charge=   -0.000055

     Initial potential from superposition of free atoms

     starting charge      30.0000, renormalised to      32.0000
     Starting wfcs are   26 randomized atomic wfcs

     total cpu time spent up to now is        6.5 secs

     Self-consistent Calculation

     iteration #  1     ecut=    70.00 Ry     beta= 0.70
     Davidson diagonalization with overlap
     ethr =  1.00E-02,  avg # of iterations =  2.0

     total cpu time spent up to now is        7.8 secs

     total energy              =    -498.10093759 Ry
     estimated scf accuracy    <       4.75071432 Ry

     iteration #  2     ecut=    70.00 Ry     beta= 0.70
     Davidson diagonalization with overlap
     ethr =  1.00E-02,  avg # of iterations =  3.0

     total cpu time spent up to now is        9.9 secs

     total energy              =    -498.46538535 Ry
     estimated scf accuracy    <      12.59324441 Ry

     iteration #  3     ecut=    70.00 Ry     beta= 0.70
     Davidson diagonalization with overlap
     ethr =  1.00E-02,  avg # of iterations =  2.4

     total cpu time spent up to now is       10.1 secs

     total energy              =    -500.67283105 Ry
     estimated scf accuracy    <       0.00641176 Ry

     iteration #  4     ecut=    70.00 Ry     beta= 0.70
     Davidson diagonalization with overlap
     ethr =  2.00E-05,  avg # of iterations =  3.3

     total cpu time spent up to now is       11.3 secs

     total energy              =    -500.66697913 Ry
     estimated scf accuracy    <       0.01806770 Ry

     iteration #  5     ecut=    70.00 Ry     beta= 0.70
     Davidson diagonalization with overlap
     ethr =  2.00E-05,  avg # of iterations =  3.2

     total cpu time spent up to now is       11.5 secs

     total energy              =    -500.67827344 Ry
     estimated scf accuracy    <       0.02885306 Ry

     iteration #  6     ecut=    70.00 Ry     beta= 0.70
     Davidson diagonalization with overlap
     ethr =  2.00E-05,  avg # of iterations =  1.0

     total cpu time spent up to now is       11.6 secs

     total energy              =    -500.67669277 Ry
     estimated scf accuracy    <       0.01574039 Ry

     iteration #  7     ecut=    70.00 Ry     beta= 0.70
     Davidson diagonalization with overlap
     ethr =  2.00E-05,  avg # of iterations =  1.2

     total cpu time spent up to now is       11.7 secs

     total energy              =    -500.67494188 Ry
     estimated scf accuracy    <       0.00756997 Ry

     iteration #  8     ecut=    70.00 Ry     beta= 0.70
     Davidson diagonalization with overlap
     ethr =  2.00E-05,  avg # of iterations =  2.0

     total cpu time spent up to now is       11.9 secs

     total energy              =    -500.67516441 Ry
     estimated scf accuracy    <       0.00095917 Ry

     iteration #  9     ecut=    70.00 Ry     beta= 0.70
     Davidson diagonalization with overlap
     ethr =  3.00E-06,  avg # of iterations =  2.2

     total cpu time spent up to now is       12.1 secs

     total energy              =    -500.67536103 Ry
     estimated scf accuracy    <       0.00000099 Ry

     iteration # 10     ecut=    70.00 Ry     beta= 0.70
     Davidson diagonalization with overlap
     ethr =  3.10E-09,  avg # of iterations =  3.4

     total cpu time spent up to now is       12.3 secs

     total energy              =    -500.67534223 Ry
     estimated scf accuracy    <       0.00008863 Ry

     iteration # 11     ecut=    70.00 Ry     beta= 0.70
     Davidson diagonalization with overlap
     ethr =  3.10E-09,  avg # of iterations =  4.3

     total cpu time spent up to now is       12.5 secs

     total energy              =    -500.67535396 Ry
     estimated scf accuracy    <       0.00000085 Ry

     iteration # 12     ecut=    70.00 Ry     beta= 0.70
     Davidson diagonalization with overlap
     ethr =  2.65E-09,  avg # of iterations =  2.7

     total cpu time spent up to now is       12.6 secs

     total energy              =    -500.67535421 Ry
     estimated scf accuracy    <       0.00000042 Ry

     iteration # 13     ecut=    70.00 Ry     beta= 0.70
     Davidson diagonalization with overlap
     ethr =  1.30E-09,  avg # of iterations =  2.0

     total cpu time spent up to now is       12.8 secs

     End of self-consistent calculation

     Number of k-points >= 100: set verbosity='high' to print the bands.

     the Fermi energy is    19.3779 ev

!    total energy              =    -500.67535426 Ry
     estimated scf accuracy    <          4.8E-09 Ry
     smearing contrib. (-TS)   =       0.00014996 Ry
     internal energy E=F+TS    =    -500.67550422 Ry

     The total energy is F=E-TS. E is the sum of the following terms:
     one-electron contribution =    -216.79029019 Ry
     hartree contribution      =     128.53515295 Ry
     xc contribution           =     -58.20187448 Ry
     ewald contribution        =    -354.21849250 Ry

     convergence has been achieved in  13 iterations


     Computing stress (Cartesian axis) and pressure

          total   stress  (Ry/bohr**3)                   (kbar)     P=     -148.79
  -0.00083510   0.00000000   0.00000000         -122.85        0.00        0.00
   0.00000000  -0.00082554   0.00000000            0.00     -121.44        0.00
   0.00000000   0.00000000  -0.00137364            0.00        0.00     -202.07


     BFGS Geometry Optimization
     Energy error            =      1.2E-02 Ry
     Gradient error          =      0.0E+00 Ry/Bohr
     Cell gradient error     =      2.0E+02 kbar

     number of scf cycles    =   1
     number of bfgs steps    =   0

     enthalpy           new  =    -500.6753542605 Ry

     new trust radius        =       0.0828463698 bohr
     new conv_thr            =       0.0000000100 Ry

     new unit-cell volume =    134.73004 a.u.^3 (    19.96493 Ang^3 )
     density =      9.28957 g/cm^3

CELL_PARAMETERS (angstrom)
   1.219007371  -2.111033292   0.000000000
   1.219007371   2.111033292   0.000000000
   0.000000000   0.000000000   3.879148697

ATOMIC_POSITIONS (crystal)
Fe               0.0000000000        0.0000000000        0.0000000000    0   0   0
Fe               0.6666666667        0.3333333333        0.5000000000    0   0   0



     Writing config-only to output data dir ./out/Fe_hcp.save/ :
     XML data file
     NEW-OLD atomic charge density approx. for the potential
     New effective cutoffs (rho, wfc):  746.85   74.97

     Check: negative core charge=   -0.000041

     total cpu time spent up to now is       13.5 secs

     Self-consistent Calculation

     iteration #  1     ecut=    70.00 Ry     beta= 0.70
     Davidson diagonalization with overlap
     ethr =  1.00E-06,  avg # of iterations =  6.3

     total cpu time spent up to now is       13.8 secs

     total energy              =    -500.67608996 Ry
     estimated scf accuracy    <       0.00620588 Ry

     iteration #  2     ecut=    70.00 Ry     beta= 0.70
     Davidson diagonalization with overlap
     ethr =  1.94E-05,  avg # of iterations =  3.0

     total cpu time spent up to now is       14.0 secs

     total energy              =    -500.67652873 Ry
     estimated scf accuracy    <       0.01750636 Ry

     iteration #  3     ecut=    70.00 Ry     beta= 0.70
     Davidson diagonalization with overlap
     ethr =  1.94E-05,  avg # of iterations =  2.5

     total cpu time spent up to now is       14.2 secs

     total energy              =    -500.67954480 Ry
     estimated scf accuracy    <       0.00000727 Ry

     iteration #  4     ecut=    70.00 Ry     beta= 0.70
     Davidson diagonalization with overlap
     ethr =  2.27E-08,  avg # of iterations =  3.8

     total cpu time spent up to now is       14.4 secs

     total energy              =    -500.67955986 Ry
     estimated scf accuracy    <       0.00001807 Ry

     iteration #  5     ecut=    70.00 Ry     beta= 0.70
     Davidson diagonalization with overlap
     ethr =  2.27E-08,  avg # of iterations =  2.0

     total cpu time spent up to now is       14.5 secs

     total energy              =    -500.67956133 Ry
     estimated scf accuracy    <       0.00000095 Ry

     iteration #  6     ecut=    70.00 Ry     beta= 0.70
     Davidson diagonalization with overlap
     ethr =  2.97E-09,  avg # of iterations =  2.9

     total cpu time spent up to now is       14.7 secs

     total energy              =    -500.67956168 Ry
     estimated scf accuracy    <       0.00000056 Ry

     iteration #  7     ecut=    70.00 Ry     beta= 0.70
     Davidson diagonalization with overlap
     ethr =  1.74E-09,  avg # of iterations =  2.0

     total cpu time spent up to now is       14.8 secs

     total energy              =    -500.67956175 Ry
     estimated scf accuracy    <       0.00000001 Ry

     iteration #  8     ecut=    70.00 Ry     beta= 0.70
     Davidson diagonalization with overlap
     ethr =  3.41E-11,  avg # of iterations =  2.9

     total cpu time spent up to now is       15.0 secs

     End of self-consistent calculation

     Number of k-points >= 100: set verbosity='high' to print the bands.

     the Fermi energy is    21.2571 ev

!    total energy              =    -500.67956175 Ry
     estimated scf accuracy    <          5.4E-10 Ry
     smearing contrib. (-TS)   =       0.00008566 Ry
     internal energy E=F+TS    =    -500.67964741 Ry

     The total energy is F=E-TS. E is the sum of the following terms:
     one-electron contribution =    -202.41810716 Ry
     hartree contribution      =     123.46210306 Ry
     xc contribution           =     -58.33656918 Ry
     ewald contribution        =    -363.38707414 Ry

     convergence has been achieved in   8 iterations


     Computing stress (Cartesian axis) and pressure

          total   stress  (Ry/bohr**3)                   (kbar)     P=       59.49
   0.00045008  -0.00000000   0.00000000           66.21       -0.00        0.00
  -0.00000000   0.00045483   0.00000000           -0.00       66.91        0.00
   0.00000000   0.00000000   0.00030839            0.00        0.00       45.37

     Energy error            =      4.2E-03 Ry
     Gradient error          =      0.0E+00 Ry/Bohr
     Cell gradient error     =      6.7E+01 kbar

     number of scf cycles    =   2
     number of bfgs steps    =   1

     enthalpy           old  =    -500.6753542605 Ry
     enthalpy           new  =    -500.6795617511 Ry

     CASE: enthalpy          _new < enthalpy          _old

     new trust radius        =       0.0183938505 bohr
     new conv_thr            =            1.0E-10 Ry

     new unit-cell volume =    137.58350 a.u.^3 (    20.38777 Ang^3 )
     density =      9.09690 g/cm^3

CELL_PARAMETERS (angstrom)
   1.228563023  -2.127759809   0.000000000
   1.228563023   2.127759809   0.000000000
   0.000000000   0.000000000   3.899596994

ATOMIC_POSITIONS (crystal)
Fe               0.0000000000        0.0000000000        0.0000000000    0   0   0
Fe               0.6666666667        0.3333333333        0.5000000000    0   0   0



     Writing config-only to output data dir ./out/Fe_hcp.save/ :
     XML data file
     NEW-OLD atomic charge density approx. for the potential
     New effective cutoffs (rho, wfc):  738.36   74.16

     Check: negative core charge=   -0.000045

     total cpu time spent up to now is       16.5 secs

     Self-consistent Calculation

     iteration #  1     ecut=    70.00 Ry     beta= 0.70
     Davidson diagonalization with overlap
     ethr =  1.00E-06,  avg # of iterations =  4.1

     total cpu time spent up to now is       16.7 secs

     total energy              =    -500.67987956 Ry
     estimated scf accuracy    <       0.00043151 Ry

     iteration #  2     ecut=    70.00 Ry     beta= 0.70
     Davidson diagonalization with overlap
     ethr =  1.35E-06,  avg # of iterations =  3.0

     total cpu time spent up to now is       16.9 secs

     total energy              =    -500.67991683 Ry
     estimated scf accuracy    <       0.00120519 Ry

     iteration #  3     ecut=    70.00 Ry     beta= 0.70
     Davidson diagonalization with overlap
     ethr =  1.35E-06,  avg # of iterations =  2.6

     total cpu time spent up to now is       17.1 secs

     total energy              =    -500.68012063 Ry
     estimated scf accuracy    <       0.00000079 Ry

     iteration #  4     ecut=    70.00 Ry     beta= 0.70
     Davidson diagonalization with overlap
     ethr =  2.48E-09,  avg # of iterations =  3.7

     total cpu time spent up to now is       17.3 secs

     total energy              =    -500.68012175 Ry
     estimated scf accuracy    <       0.00000163 Ry

     iteration #  5     ecut=    70.00 Ry     beta= 0.70
     Davidson diagonalization with overlap
     ethr =  2.48E-09,  avg # of iterations =  2.3

     total cpu time spent up to now is       17.4 secs

     total energy              =    -500.68012208 Ry
     estimated scf accuracy    <          7.0E-09 Ry

     iteration #  6     ecut=    70.00 Ry     beta= 0.70
     Davidson diagonalization with overlap
     ethr =  2.19E-11,  avg # of iterations =  2.4

     total cpu time spent up to now is       17.6 secs

     total energy              =    -500.68012208 Ry
     estimated scf accuracy    <          4.2E-09 Ry

     iteration #  7     ecut=    70.00 Ry     beta= 0.70
     Davidson diagonalization with overlap
     ethr =  1.32E-11,  avg # of iterations =  2.0

     total cpu time spent up to now is       17.7 secs

     End of self-consistent calculation

     Number of k-points >= 100: set verbosity='high' to print the bands.

     the Fermi energy is    20.7281 ev

!    total energy              =    -500.68012208 Ry
     estimated scf accuracy    <          3.3E-11 Ry
     smearing contrib. (-TS)   =       0.00009614 Ry
     internal energy E=F+TS    =    -500.68021822 Ry

     The total energy is F=E-TS. E is the sum of the following terms:
     one-electron contribution =    -206.38505113 Ry
     hartree contribution      =     124.85314936 Ry
     xc contribution           =     -58.29823397 Ry
     ewald contribution        =    -360.85008248 Ry

     convergence has been achieved in   7 iterations


     Computing stress (Cartesian axis) and pressure

          total   stress  (Ry/bohr**3)                   (kbar)     P=       -3.84
  -0.00000467   0.00000000   0.00000000           -0.69        0.00        0.00
   0.00000000  -0.00000247   0.00000000            0.00       -0.36        0.00
   0.00000000   0.00000000  -0.00007109            0.00        0.00      -10.46

     Energy error            =      5.6E-04 Ry
     Gradient error          =      0.0E+00 Ry/Bohr
     Cell gradient error     =      1.0E+01 kbar

     number of scf cycles    =   3
     number of bfgs steps    =   2

     enthalpy           old  =    -500.6795617511 Ry
     enthalpy           new  =    -500.6801220802 Ry

     CASE: enthalpy          _new < enthalpy          _old

     new trust radius        =       0.0036931912 bohr
     new conv_thr            =            1.0E-10 Ry

     new unit-cell volume =    137.41612 a.u.^3 (    20.36297 Ang^3 )
     density =      9.10799 g/cm^3

CELL_PARAMETERS (angstrom)
   1.228749467  -2.128199131   0.000000000
   1.228749467   2.128199131   0.000000000
   0.000000000   0.000000000   3.893457843

ATOMIC_POSITIONS (crystal)
Fe               0.0000000000        0.0000000000        0.0000000000    0   0   0
Fe               0.6666666667        0.3333333333        0.5000000000    0   0   0



     Writing config-only to output data dir ./out/Fe_hcp.save/ :
     XML data file
     NEW-OLD atomic charge density approx. for the potential
     New effective cutoffs (rho, wfc):  740.24   74.39

     Check: negative core charge=   -0.000045

     total cpu time spent up to now is       17.8 secs

     Self-consistent Calculation

     iteration #  1     ecut=    70.00 Ry     beta= 0.70
     Davidson diagonalization with overlap
     ethr =  1.00E-06,  avg # of iterations =  3.0

     Threshold (ethr) on eigenvalues was too large:
     Diagonalizing with lowered threshold

     Davidson diagonalization with overlap
     ethr =  4.75E-09,  avg # of iterations =  2.9

     total cpu time spent up to now is       18.2 secs

     total energy              =    -500.68012967 Ry
     estimated scf accuracy    <       0.00000207 Ry

     iteration #  2     ecut=    70.00 Ry     beta= 0.70
     Davidson diagonalization with overlap
     ethr =  6.46E-09,  avg # of iterations =  2.9

     total cpu time spent up to now is       18.4 secs

     total energy              =    -500.68012974 Ry
     estimated scf accuracy    <       0.00000355 Ry

     iteration #  3     ecut=    70.00 Ry     beta= 0.70
     Davidson diagonalization with overlap
     ethr =  6.46E-09,  avg # of iterations =  2.3

     total cpu time spent up to now is       18.5 secs

     total energy              =    -500.68013047 Ry
     estimated scf accuracy    <       0.00000004 Ry

     iteration #  4     ecut=    70.00 Ry     beta= 0.70
     Davidson diagonalization with overlap
     ethr =  1.36E-10,  avg # of iterations =  1.8

     total cpu time spent up to now is       18.7 secs

     total energy              =    -500.68013048 Ry
     estimated scf accuracy    <          5.9E-09 Ry

     iteration #  5     ecut=    70.00 Ry     beta= 0.70
     Davidson diagonalization with overlap
     ethr =  1.83E-11,  avg # of iterations =  2.1

     total cpu time spent up to now is       18.8 secs

     total energy              =    -500.68013048 Ry
     estimated scf accuracy    <          1.9E-10 Ry

     iteration #  6     ecut=    70.00 Ry     beta= 0.70
     Davidson diagonalization with overlap
     ethr =  5.91E-13,  avg # of iterations =  2.7

     total cpu time spent up to now is       19.0 secs

     End of self-consistent calculation

     Number of k-points >= 100: set verbosity='high' to print the bands.

     the Fermi energy is    20.7576 ev

!    total energy              =    -500.68013048 Ry
     estimated scf accuracy    <          6.9E-11 Ry
     smearing contrib. (-TS)   =       0.00009387 Ry
     internal energy E=F+TS    =    -500.68022435 Ry

     The total energy is F=E-TS. E is the sum of the following terms:
     one-electron contribution =    -206.16610426 Ry
     hartree contribution      =     124.77774522 Ry
     xc contribution           =     -58.30056337 Ry
     ewald contribution        =    -360.99130194 Ry

     convergence has been achieved in   6 iterations


     Computing stress (Cartesian axis) and pressure

          total   stress  (Ry/bohr**3)                   (kbar)     P=        0.22
   0.00000468   0.00000000   0.00000000            0.69        0.00        0.00
   0.00000000   0.00000541   0.00000000            0.00        0.80        0.00
   0.00000000   0.00000000  -0.00000552            0.00        0.00       -0.81

     Energy error            =      8.4E-06 Ry
     Gradient error          =      0.0E+00 Ry/Bohr
     Cell gradient error     =      8.1E-01 kbar

     number of scf cycles    =   4
     number of bfgs steps    =   3

     enthalpy           old  =    -500.6801220802 Ry
     enthalpy           new  =    -500.6801304786 Ry

     CASE: enthalpy          _new < enthalpy          _old

     new trust radius        =       0.0004604877 bohr
     new conv_thr            =            1.0E-10 Ry

     new unit-cell volume =    137.42675 a.u.^3 (    20.36454 Ang^3 )
     density =      9.10728 g/cm^3

CELL_PARAMETERS (angstrom)
   1.228904858  -2.128512661   0.000000000
   1.228904858   2.128512661   0.000000000
   0.000000000   0.000000000   3.892693119

ATOMIC_POSITIONS (crystal)
Fe               0.0000000000        0.0000000000        0.0000000000    0   0   0
Fe               0.6666666667        0.3333333333        0.5000000000    0   0   0



     Writing config-only to output data dir ./out/Fe_hcp.save/ :
     XML data file
     NEW-OLD atomic charge density approx. for the potential
     New effective cutoffs (rho, wfc):  740.45   74.41

     Check: negative core charge=   -0.000045

     total cpu time spent up to now is       19.1 secs

     Self-consistent Calculation

     iteration #  1     ecut=    70.00 Ry     beta= 0.70
     Davidson diagonalization with overlap
     ethr =  1.00E-06,  avg # of iterations =  2.0

     Threshold (ethr) on eigenvalues was too large:
     Diagonalizing with lowered threshold

     Davidson diagonalization with overlap
     ethr =  7.13E-11,  avg # of iterations =  3.3

     total cpu time spent up to now is       19.4 secs

     total energy              =    -500.68013063 Ry
     estimated scf accuracy    <       0.00000003 Ry

     iteration #  2     ecut=    70.00 Ry     beta= 0.70
     Davidson diagonalization with overlap
     ethr =  1.01E-10,  avg # of iterations =  2.1

     total cpu time spent up to now is       19.6 secs

     total energy              =    -500.68013063 Ry
     estimated scf accuracy    <       0.00000001 Ry

     iteration #  3     ecut=    70.00 Ry     beta= 0.70
     Davidson diagonalization with overlap
     ethr =  4.12E-11,  avg # of iterations =  2.4

     total cpu time spent up to now is       19.8 secs

     total energy              =    -500.68013063 Ry
     estimated scf accuracy    <          5.6E-09 Ry

     iteration #  4     ecut=    70.00 Ry     beta= 0.70
     Davidson diagonalization with overlap
     ethr =  1.76E-11,  avg # of iterations =  2.0

     total cpu time spent up to now is       19.9 secs

     End of self-consistent calculation

     Number of k-points >= 100: set verbosity='high' to print the bands.

     the Fermi energy is    20.7555 ev

!    total energy              =    -500.68013063 Ry
     estimated scf accuracy    <          4.0E-11 Ry
     smearing contrib. (-TS)   =       0.00009352 Ry
     internal energy E=F+TS    =    -500.68022415 Ry

     The total energy is F=E-TS. E is the sum of the following terms:
     one-electron contribution =    -206.18252123 Ry
     hartree contribution      =     124.78369222 Ry
     xc contribution           =     -58.30042510 Ry
     ewald contribution        =    -360.98097004 Ry

     convergence has been achieved in   4 iterations


     Computing stress (Cartesian axis) and pressure

          total   stress  (Ry/bohr**3)                   (kbar)     P=       -0.25
  -0.00000174   0.00000000   0.00000000           -0.26        0.00        0.00
   0.00000000  -0.00000155   0.00000000            0.00       -0.23        0.00
   0.00000000   0.00000000  -0.00000180            0.00        0.00       -0.26

     Energy error            =      1.5E-07 Ry
     Gradient error          =      0.0E+00 Ry/Bohr
     Cell gradient error     =      2.6E-01 kbar

     bfgs converged in   5 scf cycles and   4 bfgs steps
     (criteria: energy <  1.0E-04 Ry, force <  1.0E-03 Ry/Bohr, cell <  5.0E-01 kbar)

     End of BFGS Geometry Optimization

     Final enthalpy           =    -500.6801306326 Ry

     File ./out/Fe_hcp.bfgs deleted, as requested
Begin final coordinates
     new unit-cell volume =    137.42675 a.u.^3 (    20.36454 Ang^3 )
     density =      9.10728 g/cm^3

CELL_PARAMETERS (angstrom)
   1.228904858  -2.128512661   0.000000000
   1.228904858   2.128512661   0.000000000
   0.000000000   0.000000000   3.892693119

ATOMIC_POSITIONS (crystal)
Fe               0.0000000000        0.0000000000        0.0000000000    0   0   0
Fe               0.6666666667        0.3333333333        0.5000000000    0   0   0
End final coordinates



     Writing config-only to output data dir ./out/Fe_hcp.save/ :
     XML data file

     Final scf calculation at the relaxed structure.
     The G-vectors are recalculated for the final unit cell
     Results may differ from those at the preceding step.
 
     Parallelization info
     --------------------
     sticks:   dense  smooth     PW     G-vecs:    dense   smooth      PW
     Min         259     105     37                10735     2717     547
     Max         260     106     39                10742     2724     548
     Sum        1039     421    151                42955    10875    2189
 
     Using Slab Decomposition
 


     bravais-lattice index     =            0
     lattice parameter (alat)  =       4.7040  a.u.
     unit-cell volume          =     137.4267 (a.u.)^3
     number of atoms/cell      =            2
     number of atomic types    =            1
     number of electrons       =        32.00
     number of Kohn-Sham states=           20
     kinetic-energy cutoff     =      70.0000  Ry
     charge density cutoff     =     700.0000  Ry
     scf convergence threshold =      1.0E-10
     mixing beta               =       0.7000
     number of iterations used =            8  plain     mixing
     press convergence thresh. =      5.0E-01
     Exchange-correlation=  SLA  PW   PBX  PBC
                           (   1   4   3   4   0   0   0)

     celldm(1)=   4.703973  celldm(2)=   0.000000  celldm(3)=   0.000000
     celldm(4)=   0.000000  celldm(5)=   0.000000  celldm(6)=   0.000000

     crystal axes: (cart. coord. in units of alat)
               a(1) = (   0.493688  -0.855087   0.000000 )  
               a(2) = (   0.493688   0.855087   0.000000 )  
               a(3) = (   0.000000   0.000000   1.563811 )  

     reciprocal axes: (cart. coord. in units 2 pi/alat)
               b(1) = (  1.012786 -0.584736  0.000000 )  
               b(2) = (  1.012786  0.584736  0.000000 )  
               b(3) = (  0.000000  0.000000  0.639463 )  


     PseudoPot. # 1 for Fe read from file:
     /home/m0049/m004905/PSPOT/fe_pbe_v1.5.uspp.F.UPF
     MD5 check sum: a130daea23fe5165f5d574ae7f82ed95
     Pseudo is Ultrasoft + core correction, Zval = 16.0
     Generated by new atomic code, or converted to UPF format
     Using radial grid of  861 points,  6 beta functions with: 
                l(1) =   0
                l(2) =   0
                l(3) =   1
                l(4) =   1
                l(5) =   2
                l(6) =   2
     Q(r) pseudized with  8 coefficients,  rinner =    1.000   1.000   1.000
                                                       1.000   1.000

     atomic species   valence    mass     pseudopotential
     Fe               16.00    55.84500     Fe( 1.00)

      8 Sym. Ops., with inversion, found ( 4 have fractional translation)



   Cartesian axes

     site n.     atom                  positions (alat units)
         1        Fe     tau(   1) = (   0.0000000   0.0000000   0.0000000  )
         2        Fe     tau(   2) = (   0.4936877  -0.2850290   0.7819055  )

     number of k points=   215  Methfessel-Paxton smearing, width (Ry)=  0.0100

     Number of k-points >= 100: set verbosity='high' to print them.

     Dense  grid:    42955 G-vectors     FFT dimensions: (  45,  45,  64)

     Smooth grid:    10875 G-vectors     FFT dimensions: (  27,  27,  40)

     Estimated max dynamical RAM per process >      14.11 MB

     Estimated total dynamical RAM >     929.84 MB

     Check: negative core charge=   -0.000056

     Initial potential from superposition of free atoms

     starting charge      30.0000, renormalised to      32.0000
     Starting wfcs are   26 randomized atomic wfcs

     total cpu time spent up to now is       20.3 secs

     Self-consistent Calculation

     iteration #  1     ecut=    70.00 Ry     beta= 0.70
     Davidson diagonalization with overlap
     ethr =  1.00E-06,  avg # of iterations =  8.0

     total cpu time spent up to now is       20.7 secs

     total energy              =    -497.98175326 Ry
     estimated scf accuracy    <       4.88267310 Ry

     iteration #  2     ecut=    70.00 Ry     beta= 0.70
     Davidson diagonalization with overlap
     ethr =  1.00E-02,  avg # of iterations =  3.0

     total cpu time spent up to now is       20.8 secs

     total energy              =    -498.47602356 Ry
     estimated scf accuracy    <      12.58806290 Ry

     iteration #  3     ecut=    70.00 Ry     beta= 0.70
     Davidson diagonalization with overlap
     ethr =  1.00E-02,  avg # of iterations =  2.4

     total cpu time spent up to now is       21.0 secs

     total energy              =    -500.67620424 Ry
     estimated scf accuracy    <       0.00276500 Ry

     iteration #  4     ecut=    70.00 Ry     beta= 0.70
     Davidson diagonalization with overlap
     ethr =  8.64E-06,  avg # of iterations =  3.5

     total cpu time spent up to now is       21.2 secs

     total energy              =    -500.67495890 Ry
     estimated scf accuracy    <       0.00993210 Ry

     iteration #  5     ecut=    70.00 Ry     beta= 0.70
     Davidson diagonalization with overlap
     ethr =  8.64E-06,  avg # of iterations =  3.5

     total cpu time spent up to now is       21.4 secs

     total energy              =    -500.68185354 Ry
     estimated scf accuracy    <       0.02890773 Ry

     iteration #  6     ecut=    70.00 Ry     beta= 0.70
     Davidson diagonalization with overlap
     ethr =  8.64E-06,  avg # of iterations =  2.0

     total cpu time spent up to now is       21.5 secs

     total energy              =    -500.68074258 Ry
     estimated scf accuracy    <       0.01180237 Ry

     iteration #  7     ecut=    70.00 Ry     beta= 0.70
     Davidson diagonalization with overlap
     ethr =  8.64E-06,  avg # of iterations =  2.0

     total cpu time spent up to now is       21.6 secs

     total energy              =    -500.67949570 Ry
     estimated scf accuracy    <       0.00480495 Ry

     iteration #  8     ecut=    70.00 Ry     beta= 0.70
     Davidson diagonalization with overlap
     ethr =  8.64E-06,  avg # of iterations =  2.1

     total cpu time spent up to now is       21.8 secs

     total energy              =    -500.67998537 Ry
     estimated scf accuracy    <       0.00019858 Ry

     iteration #  9     ecut=    70.00 Ry     beta= 0.70
     Davidson diagonalization with overlap
     ethr =  6.21E-07,  avg # of iterations =  2.9

     total cpu time spent up to now is       21.9 secs

     total energy              =    -500.68005766 Ry
     estimated scf accuracy    <       0.00004034 Ry

     iteration # 10     ecut=    70.00 Ry     beta= 0.70
     Davidson diagonalization with overlap
     ethr =  1.26E-07,  avg # of iterations =  1.8

     total cpu time spent up to now is       22.1 secs

     total energy              =    -500.68006061 Ry
     estimated scf accuracy    <       0.00000224 Ry

     iteration # 11     ecut=    70.00 Ry     beta= 0.70
     Davidson diagonalization with overlap
     ethr =  7.00E-09,  avg # of iterations =  2.9

     total cpu time spent up to now is       22.2 secs

     total energy              =    -500.68006132 Ry
     estimated scf accuracy    <       0.00000175 Ry

     iteration # 12     ecut=    70.00 Ry     beta= 0.70
     Davidson diagonalization with overlap
     ethr =  5.46E-09,  avg # of iterations =  2.0

     total cpu time spent up to now is       22.4 secs

     total energy              =    -500.68006172 Ry
     estimated scf accuracy    <       0.00000004 Ry

     iteration # 13     ecut=    70.00 Ry     beta= 0.70
     Davidson diagonalization with overlap
     ethr =  1.27E-10,  avg # of iterations =  1.8

     total cpu time spent up to now is       22.5 secs

     total energy              =    -500.68006173 Ry
     estimated scf accuracy    <       0.00000001 Ry

     iteration # 14     ecut=    70.00 Ry     beta= 0.70
     Davidson diagonalization with overlap
     ethr =  4.22E-11,  avg # of iterations =  1.0

     total cpu time spent up to now is       22.6 secs

     total energy              =    -500.68006172 Ry
     estimated scf accuracy    <          8.0E-09 Ry

     iteration # 15     ecut=    70.00 Ry     beta= 0.70
     Davidson diagonalization with overlap
     ethr =  2.49E-11,  avg # of iterations =  1.0

     total cpu time spent up to now is       22.8 secs

     total energy              =    -500.68006172 Ry
     estimated scf accuracy    <          2.5E-09 Ry

     iteration # 16     ecut=    70.00 Ry     beta= 0.70
     Davidson diagonalization with overlap
     ethr =  7.90E-12,  avg # of iterations =  2.0

     total cpu time spent up to now is       22.9 secs

     End of self-consistent calculation

     Number of k-points >= 100: set verbosity='high' to print the bands.

     the Fermi energy is    20.7556 ev

!    total energy              =    -500.68006172 Ry
     estimated scf accuracy    <          2.1E-11 Ry
     smearing contrib. (-TS)   =       0.00009348 Ry
     internal energy E=F+TS    =    -500.68015521 Ry

     The total energy is F=E-TS. E is the sum of the following terms:
     one-electron contribution =    -206.18248238 Ry
     hartree contribution      =     124.78383216 Ry
     xc contribution           =     -58.30053495 Ry
     ewald contribution        =    -360.98097004 Ry

     convergence has been achieved in  16 iterations


     Computing stress (Cartesian axis) and pressure

          total   stress  (Ry/bohr**3)                   (kbar)     P=       -0.91
  -0.00000564  -0.00000000   0.00000000           -0.83       -0.00        0.00
  -0.00000000  -0.00000548   0.00000000           -0.00       -0.81        0.00
   0.00000000   0.00000000  -0.00000739            0.00        0.00       -1.09


     Writing all to output data dir ./out/Fe_hcp.save/ :
     XML data file, charge density, pseudopotentials, collected wavefunctions
 
     init_run     :      0.45s CPU      3.94s WALL (       2 calls)
     electrons    :     11.82s CPU     13.83s WALL (       6 calls)
     update_pot   :      0.06s CPU      0.07s WALL (       4 calls)
     stress       :      0.31s CPU      0.33s WALL (       6 calls)

     Called by init_run:
     wfcinit      :      0.10s CPU      1.39s WALL (       2 calls)
     potinit      :      0.03s CPU      0.58s WALL (       2 calls)
     hinit0       :      0.15s CPU      1.73s WALL (       2 calls)

     Called by electrons:
     c_bands      :      9.59s CPU     10.10s WALL (      56 calls)
     sum_band     :      1.31s CPU      2.53s WALL (      56 calls)
     v_of_rho     :      0.71s CPU      1.09s WALL (      60 calls)
     newd         :      0.12s CPU      0.20s WALL (      60 calls)
     mix_rho      :      0.06s CPU      0.09s WALL (      56 calls)

     Called by c_bands:
     init_us_2    :      0.13s CPU      0.14s WALL (    1320 calls)
     cegterg      :      5.90s CPU      6.19s WALL (     616 calls)

     Called by *egterg:
     cdiaghg      :      0.89s CPU      2.13s WALL (    2169 calls)
     h_psi        :      4.40s CPU      4.69s WALL (    2257 calls)
     s_psi        :      0.07s CPU      0.08s WALL (    2257 calls)
     g_psi        :      0.02s CPU      0.02s WALL (    1619 calls)

     Called by h_psi:
     h_psi:calbec :      0.15s CPU      0.21s WALL (    2257 calls)
     vloc_psi     :      4.14s CPU      4.36s WALL (    2257 calls)
                                        0.00s GPU  (    2257 calls)
     add_vuspsi   :      0.08s CPU      0.09s WALL (    2257 calls)

     General routines
     calbec       :      0.23s CPU      0.30s WALL (    3731 calls)
     fft          :      0.33s CPU      1.90s WALL (     858 calls)
     ffts         :      0.02s CPU      0.23s WALL (     116 calls)
     fftw         :      4.33s CPU      4.56s WALL (   81908 calls)
     interpolate  :      0.04s CPU      0.25s WALL (      60 calls)
 
     Parallel routines
 
     PWSCF        :     12.80s CPU     23.18s WALL

 
   This run was terminated on:  17:55:38  10Jul2025            

=------------------------------------------------------------------------------=
   JOB DONE.
=------------------------------------------------------------------------------=
