
     Program PWSCF v.7.1 starts on 11Jun2026 at  3:47:48 

     This program is part of the open-source Quantum ESPRESSO suite
     for quantum simulation of materials; please cite
         "P. Giannozzi et al., J. Phys.:Condens. Matter 21 395502 (2009);
         "P. Giannozzi et al., J. Phys.:Condens. Matter 29 465901 (2017);
         "P. Giannozzi et al., J. Chem. Phys. 152 154105 (2020);
          URL http://www.quantum-espresso.org", 
     in publications or presentations arising from this work. More details at
     http://www.quantum-espresso.org/quote

     Parallel version (MPI & OpenMP), running on       7 processor cores
     Number of MPI processes:                 7
     Threads/MPI process:                     1

     MPI processes distributed on     7 nodes
     223585 MiB available memory on the printing compute node when the environment starts
 
     Waiting for input...
     Reading input from standard input
Warning: card &CELL ignored
Warning: card / ignored
Warning: card &FCP ignored
Warning: card / ignored
Warning: card &RISM ignored
Warning: card / ignored

     Current dimensions of program PWSCF are:
     Max number of different atomic species (ntypx) = 10
     Max number of k-points (npk) =  40000
     Max angular momentum in pseudopotentials (lmaxx) =  4

     IMPORTANT: XC functional enforced from input :
     Exchange-correlation= VDW-DF2-B86R
                           (   1   4  26   0   2   0   0)
     Any further DFT definition will be discarded
     Please, verify this is what you really want

     Message from routine setup:
     using ibrav=0 with symmetry is DISCOURAGED, use correct ibrav instead
 
     R & G space division:  proc/nbgrp/npool/nimage =       7
     Subspace diagonalization in iterative solution of the eigenvalue problem:
     a serial algorithm will be used

 
     Parallelization info
     --------------------
     sticks:   dense  smooth     PW     G-vecs:    dense   smooth      PW
     Min          85      34     12                 5223     1324     248
     Max          85      35     13                 5233     1333     253
     Sum         595     241     85                36577     9297    1749
 
     Using Slab Decomposition
 


     bravais-lattice index     =            0
     lattice parameter (alat)  =       4.6633  a.u.
     unit-cell volume          =     270.4784 (a.u.)^3
     number of atoms/cell      =            4
     number of atomic types    =            1
     number of electrons       =        16.00
     number of Kohn-Sham states=           12
     kinetic-energy cutoff     =      40.0000  Ry
     charge density cutoff     =     400.0000  Ry
     scf convergence threshold =      1.0E-08
     mixing beta               =       0.3000
     number of iterations used =            8  plain     mixing
     Exchange-correlation= VDW-DF2-B86R
                           (   1   4  26   0   2   0   0)

     celldm(1)=   4.663315  celldm(2)=   0.000000  celldm(3)=   0.000000
     celldm(4)=   0.000000  celldm(5)=   0.000000  celldm(6)=   0.000000

     crystal axes: (cart. coord. in units of alat)
               a(1) = (   1.000000   0.000000   0.000000 )  
               a(2) = (  -0.500000   0.866025   0.000000 )  
               a(3) = (   0.000000   0.000000   3.079766 )  

     reciprocal axes: (cart. coord. in units 2 pi/alat)
               b(1) = (  1.000000  0.577350  0.000000 )  
               b(2) = (  0.000000  1.154701  0.000000 )  
               b(3) = (  0.000000  0.000000  0.324700 )  


     PseudoPot. # 1 for C  read from file:
     /home/k0750/k075000/PSPOT/c_pbe_v1.2.uspp.F.UPF
     MD5 check sum: d1aef80898a10debaa0f26306b886e00
     Pseudo is Ultrasoft + core correction, Zval =  4.0
     Generated by new atomic code, or converted to UPF format
     Using radial grid of  721 points,  4 beta functions with: 
                l(1) =   0
                l(2) =   0
                l(3) =   1
                l(4) =   1
     Q(r) pseudized with  8 coefficients,  rinner =    1.100   1.100   1.100


     atomic species   valence    mass     pseudopotential
        C              4.00    12.01100     C ( 1.00)

      8 Sym. Ops., with inversion, found ( 4 have fractional translation)



   Cartesian axes

     site n.     atom                  positions (alat units)
         1           C   tau(   1) = (   0.0000000   0.0000000   2.3098245  )
         2           C   tau(   2) = (   0.0000000   0.0000000   0.7699415  )
         3           C   tau(   3) = (  -0.0000050   0.5773532   2.3098245  )
         4           C   tau(   4) = (   0.5000050   0.2886722   0.7699415  )

     number of k points=   215  Marzari-Vanderbilt smearing, width (Ry)=  0.0100

     Number of k-points >= 100: set verbosity='high' to print them.

     Dense  grid:    36577 G-vectors     FFT dimensions: (  30,  30,  96)

     Smooth grid:     9297 G-vectors     FFT dimensions: (  20,  20,  60)

     Estimated max dynamical RAM per process >      14.35 MB

     Estimated total dynamical RAM >     100.46 MB

     Initial potential from superposition of free atoms

     starting charge      15.9998, renormalised to      16.0000


     %%%%%%%%%%%%%%%%%%%%%%%%%%%%%%%%%%%%%%%%%%%%%%%%%%%%%%%%%%%%%%%%%%%%%%%%
     %                                                                      %
     % You are using vdW-DF, which was implemented by the Thonhauser group. %
     % Please cite the following two papers that made this development      %
     % possible and the two reviews that describe the various versions:     %
     %                                                                      %
     %   T. Thonhauser et al., PRL 115, 136402 (2015).                      %
     %   T. Thonhauser et al., PRB 76, 125112 (2007).                       %
     %   K. Berland et al., Rep. Prog. Phys. 78, 066501 (2015).             %
     %   D.C. Langreth et al., J. Phys.: Condens. Matter 21, 084203 (2009). %
     %                                                                      %
     % If you are calculating stress with vdW-DF, please also cite:         %
     %                                                                      %
     %   R. Sabatini et al., J. Phys.: Condens. Matter 24, 424209 (2012).   %
     %                                                                      %
     %%%%%%%%%%%%%%%%%%%%%%%%%%%%%%%%%%%%%%%%%%%%%%%%%%%%%%%%%%%%%%%%%%%%%%%%

     %%%%%%%%%%%%%%%%%%%%%%%%%%%%%%%%%%%%%%%%%%%%%%%%%%%%%%%%%%%%%%%%%%%%%%%%
     %                                                                      %
     %  vdW-DF NEWS:                                                        %
     %                                                                      %
     %  * vdW-DF3 is now available. DOI: 10.1021/acs.jctc.0c00471           %
     %    use with input_dft = 'vdW-DF3-opt1' or 'vdW-DF3-opt2'             %
     %                                                                      %
     %  * Unscreened and range-separated vdW-DF hybrid functionals          %
     %    DOI: 10.1063/1.4986522 and 10.1088/1361-648X/ac2ad2               %
     %    use with input_dft = 'vdW-DF-cx0' (etc) and 'vdW-DF-ahcx'         %
     %                                                                      %
     %%%%%%%%%%%%%%%%%%%%%%%%%%%%%%%%%%%%%%%%%%%%%%%%%%%%%%%%%%%%%%%%%%%%%%%%


     Starting wfcs are   16 randomized atomic wfcs

     total cpu time spent up to now is       13.4 secs

     Self-consistent Calculation

     iteration #  1     ecut=    40.00 Ry     beta= 0.30
     Davidson diagonalization with overlap
     ethr =  1.00E-02,  avg # of iterations =  2.8

     total cpu time spent up to now is       14.8 secs

     total energy              =     -46.04428923 Ry
     estimated scf accuracy    <       0.37429640 Ry

     iteration #  2     ecut=    40.00 Ry     beta= 0.30
     Davidson diagonalization with overlap
     ethr =  2.34E-03,  avg # of iterations =  1.3

     total cpu time spent up to now is       15.8 secs

     total energy              =     -45.97644049 Ry
     estimated scf accuracy    <       0.13367119 Ry

     iteration #  3     ecut=    40.00 Ry     beta= 0.30
     Davidson diagonalization with overlap
     ethr =  8.35E-04,  avg # of iterations =  4.1

     total cpu time spent up to now is       17.1 secs

     total energy              =     -46.00110129 Ry
     estimated scf accuracy    <       0.00358806 Ry

     iteration #  4     ecut=    40.00 Ry     beta= 0.30
     Davidson diagonalization with overlap
     ethr =  2.24E-05,  avg # of iterations =  5.0

     total cpu time spent up to now is       18.6 secs

     total energy              =     -45.99910746 Ry
     estimated scf accuracy    <       0.00750734 Ry

     iteration #  5     ecut=    40.00 Ry     beta= 0.30
     Davidson diagonalization with overlap
     ethr =  2.24E-05,  avg # of iterations =  3.2

     total cpu time spent up to now is       19.9 secs

     total energy              =     -46.00039074 Ry
     estimated scf accuracy    <       0.00001038 Ry

     iteration #  6     ecut=    40.00 Ry     beta= 0.30
     Davidson diagonalization with overlap
     ethr =  6.49E-08,  avg # of iterations =  3.9

     total cpu time spent up to now is       21.2 secs

     total energy              =     -46.00039485 Ry
     estimated scf accuracy    <       0.00000077 Ry

     iteration #  7     ecut=    40.00 Ry     beta= 0.30
     Davidson diagonalization with overlap
     ethr =  4.83E-09,  avg # of iterations =  2.1

     total cpu time spent up to now is       22.3 secs

     total energy              =     -46.00039518 Ry
     estimated scf accuracy    <       0.00000019 Ry

     iteration #  8     ecut=    40.00 Ry     beta= 0.30
     Davidson diagonalization with overlap
     ethr =  1.19E-09,  avg # of iterations =  1.1

     total cpu time spent up to now is       23.1 secs

     total energy              =     -46.00039531 Ry
     estimated scf accuracy    <       0.00000005 Ry

     iteration #  9     ecut=    40.00 Ry     beta= 0.30
     Davidson diagonalization with overlap
     ethr =  2.99E-10,  avg # of iterations =  1.0

     total cpu time spent up to now is       24.0 secs

     total energy              =     -46.00039537 Ry
     estimated scf accuracy    <       0.00000004 Ry

     iteration # 10     ecut=    40.00 Ry     beta= 0.30
     Davidson diagonalization with overlap
     ethr =  2.46E-10,  avg # of iterations =  1.4

     total cpu time spent up to now is       24.9 secs

     total energy              =     -46.00039539 Ry
     estimated scf accuracy    <       0.00000001 Ry

     iteration # 11     ecut=    40.00 Ry     beta= 0.30
     Davidson diagonalization with overlap
     ethr =  6.40E-11,  avg # of iterations =  2.0

     total cpu time spent up to now is       25.9 secs

     End of self-consistent calculation

     Number of k-points >= 100: set verbosity='high' to print the bands.

     the Fermi energy is     5.6143 ev

!    total energy              =     -46.00039543 Ry
     estimated scf accuracy    <          8.0E-11 Ry
     smearing contrib. (-TS)   =      -0.00008573 Ry
     internal energy E=F+TS    =     -46.00030970 Ry

     The total energy is F=E-TS. E is the sum of the following terms:
     one-electron contribution =     -21.34663704 Ry
     hartree contribution      =      17.78581496 Ry
     xc contribution           =     -14.55706886 Ry
     ewald contribution        =     -27.88241876 Ry

     convergence has been achieved in  11 iterations

     Forces acting on atoms (cartesian axes, Ry/au):

     atom    1 type  1   force =    -0.00002320    0.00001339    0.00000000
     atom    2 type  1   force =     0.00002320   -0.00001339    0.00000000
     atom    3 type  1   force =     0.00002321   -0.00001340    0.00000000
     atom    4 type  1   force =    -0.00002321    0.00001340    0.00000000

     Total force =     0.000054     Total SCF correction =     0.000000


     Computing stress (Cartesian axis) and pressure

          total   stress  (Ry/bohr**3)                   (kbar)     P=      -14.05
  -0.00005474  -0.00000004   0.00000000           -8.05       -0.01        0.00
  -0.00000004  -0.00005479   0.00000000           -0.01       -8.06        0.00
   0.00000000   0.00000000  -0.00017691            0.00        0.00      -26.02


     Writing all to output data dir ./tmp/graphite_d_3p80000.save/
 
     init_run     :     13.18s CPU     13.36s WALL (       1 calls)
     electrons    :     11.56s CPU     12.48s WALL (       1 calls)
     forces       :      0.11s CPU      0.11s WALL (       1 calls)
     stress       :      0.24s CPU      0.28s WALL (       1 calls)

     Called by init_run:
     wfcinit      :      0.42s CPU      0.46s WALL (       1 calls)
     potinit      :     12.70s CPU     12.81s WALL (       1 calls)
     hinit0       :      0.03s CPU      0.06s WALL (       1 calls)

     Called by electrons:
     c_bands      :      9.56s CPU     10.17s WALL (      11 calls)
     sum_band     :      1.56s CPU      1.64s WALL (      11 calls)
     v_of_rho     :     13.08s CPU     13.41s WALL (      12 calls)
     newd         :      0.03s CPU      0.03s WALL (      12 calls)
     mix_rho      :      0.01s CPU      0.01s WALL (      11 calls)
     vdW_kernel   :     12.67s CPU     12.70s WALL (       1 calls)

     Called by c_bands:
     init_us_2    :      0.12s CPU      0.12s WALL (    5375 calls)
     init_us_2:cp :      0.11s CPU      0.12s WALL (    5375 calls)
     cegterg      :      9.06s CPU      9.41s WALL (    2365 calls)

     Called by *egterg:
     cdiaghg      :      1.04s CPU      1.10s WALL (    8346 calls)
     h_psi        :      7.11s CPU      7.41s WALL (    8561 calls)
     s_psi        :      0.14s CPU      0.14s WALL (    8561 calls)
     g_psi        :      0.03s CPU      0.03s WALL (    5981 calls)

     Called by h_psi:
     h_psi:calbec :      0.41s CPU      0.43s WALL (    8561 calls)
     vloc_psi     :      6.50s CPU      6.78s WALL (    8561 calls)
     add_vuspsi   :      0.15s CPU      0.15s WALL (    8561 calls)

     General routines
     calbec       :      0.60s CPU      0.62s WALL (   12001 calls)
     fft          :      0.34s CPU      0.69s WALL (     923 calls)
     ffts         :      0.03s CPU      0.03s WALL (      23 calls)
     fftw         :      7.20s CPU      7.50s WALL (  181796 calls)
     interpolate  :      0.00s CPU      0.01s WALL (      12 calls)
 
     Parallel routines
 
     PWSCF        :     25.65s CPU     27.89s WALL

 
   This run was terminated on:   3:48:15  11Jun2026            

=------------------------------------------------------------------------------=
   JOB DONE.
=------------------------------------------------------------------------------=
