
     Program PWSCF v.7.1 starts on 11Jun2026 at  3:37:18 

     This program is part of the open-source Quantum ESPRESSO suite
     for quantum simulation of materials; please cite
         "P. Giannozzi et al., J. Phys.:Condens. Matter 21 395502 (2009);
         "P. Giannozzi et al., J. Phys.:Condens. Matter 29 465901 (2017);
         "P. Giannozzi et al., J. Chem. Phys. 152 154105 (2020);
          URL http://www.quantum-espresso.org", 
     in publications or presentations arising from this work. More details at
     http://www.quantum-espresso.org/quote

     Parallel version (MPI & OpenMP), running on       7 processor cores
     Number of MPI processes:                 7
     Threads/MPI process:                     1

     MPI processes distributed on     7 nodes
     223276 MiB available memory on the printing compute node when the environment starts
 
     Waiting for input...
     Reading input from standard input
Warning: card &CELL ignored
Warning: card / ignored
Warning: card &FCP ignored
Warning: card / ignored
Warning: card &RISM ignored
Warning: card / ignored

     Current dimensions of program PWSCF are:
     Max number of different atomic species (ntypx) = 10
     Max number of k-points (npk) =  40000
     Max angular momentum in pseudopotentials (lmaxx) =  4
     Message from routine setup:
     using ibrav=0 with symmetry is DISCOURAGED, use correct ibrav instead
 
     R & G space division:  proc/nbgrp/npool/nimage =       7
     Subspace diagonalization in iterative solution of the eigenvalue problem:
     a serial algorithm will be used

 
     Parallelization info
     --------------------
     sticks:   dense  smooth     PW     G-vecs:    dense   smooth      PW
     Min          85      34     12                 6859     1738     326
     Max          85      35     13                 6871     1751     333
     Sum         595     241     85                48043    12209    2299
 
     Using Slab Decomposition
 


     bravais-lattice index     =            0
     lattice parameter (alat)  =       4.6633  a.u.
     unit-cell volume          =     355.8926 (a.u.)^3
     number of atoms/cell      =            4
     number of atomic types    =            1
     number of electrons       =        16.00
     number of Kohn-Sham states=           12
     kinetic-energy cutoff     =      40.0000  Ry
     charge density cutoff     =     400.0000  Ry
     scf convergence threshold =      1.0E-08
     mixing beta               =       0.3000
     number of iterations used =            8  plain     mixing
     Exchange-correlation= SLA  PW   PBE  PBE
                           (   1   4   3   4   0   0   0)

     celldm(1)=   4.663315  celldm(2)=   0.000000  celldm(3)=   0.000000
     celldm(4)=   0.000000  celldm(5)=   0.000000  celldm(6)=   0.000000

     crystal axes: (cart. coord. in units of alat)
               a(1) = (   1.000000   0.000000   0.000000 )  
               a(2) = (  -0.500000   0.866025   0.000000 )  
               a(3) = (   0.000000   0.000000   4.052324 )  

     reciprocal axes: (cart. coord. in units 2 pi/alat)
               b(1) = (  1.000000  0.577350  0.000000 )  
               b(2) = (  0.000000  1.154701  0.000000 )  
               b(3) = (  0.000000  0.000000  0.246772 )  


     PseudoPot. # 1 for C  read from file:
     /home/k0750/k075000/PSPOT/c_pbe_v1.2.uspp.F.UPF
     MD5 check sum: d1aef80898a10debaa0f26306b886e00
     Pseudo is Ultrasoft + core correction, Zval =  4.0
     Generated by new atomic code, or converted to UPF format
     Using radial grid of  721 points,  4 beta functions with: 
                l(1) =   0
                l(2) =   0
                l(3) =   1
                l(4) =   1
     Q(r) pseudized with  8 coefficients,  rinner =    1.100   1.100   1.100


     atomic species   valence    mass     pseudopotential
        C              4.00    12.01100     C ( 1.00)

      8 Sym. Ops., with inversion, found ( 4 have fractional translation)



   Cartesian axes

     site n.     atom                  positions (alat units)
         1           C   tau(   1) = (   0.0000000   0.0000000   3.0392427  )
         2           C   tau(   2) = (   0.0000000   0.0000000   1.0130809  )
         3           C   tau(   3) = (  -0.0000050   0.5773532   3.0392427  )
         4           C   tau(   4) = (   0.5000050   0.2886722   1.0130809  )

     number of k points=   215  Marzari-Vanderbilt smearing, width (Ry)=  0.0100

     Number of k-points >= 100: set verbosity='high' to print them.

     Dense  grid:    48043 G-vectors     FFT dimensions: (  30,  30, 128)

     Smooth grid:    12209 G-vectors     FFT dimensions: (  20,  20,  80)

     Estimated max dynamical RAM per process >      18.74 MB

     Estimated total dynamical RAM >     131.18 MB

     Initial potential from superposition of free atoms

     starting charge      15.9998, renormalised to      16.0000
     Starting wfcs are   16 randomized atomic wfcs

     total cpu time spent up to now is        1.1 secs

     Self-consistent Calculation

     iteration #  1     ecut=    40.00 Ry     beta= 0.30
     Davidson diagonalization with overlap
     ethr =  1.00E-02,  avg # of iterations =  2.8

     total cpu time spent up to now is        2.6 secs

     total energy              =     -46.00982850 Ry
     estimated scf accuracy    <       0.37974599 Ry

     iteration #  2     ecut=    40.00 Ry     beta= 0.30
     Davidson diagonalization with overlap
     ethr =  2.37E-03,  avg # of iterations =  1.9

     total cpu time spent up to now is        3.8 secs

     total energy              =     -45.93676610 Ry
     estimated scf accuracy    <       0.13770816 Ry

     iteration #  3     ecut=    40.00 Ry     beta= 0.30
     Davidson diagonalization with overlap
     ethr =  8.61E-04,  avg # of iterations =  3.5

     total cpu time spent up to now is        5.2 secs

     total energy              =     -45.96248221 Ry
     estimated scf accuracy    <       0.00345858 Ry

     iteration #  4     ecut=    40.00 Ry     beta= 0.30
     Davidson diagonalization with overlap
     ethr =  2.16E-05,  avg # of iterations =  6.4

     total cpu time spent up to now is        7.1 secs

     total energy              =     -45.95969655 Ry
     estimated scf accuracy    <       0.00965833 Ry

     iteration #  5     ecut=    40.00 Ry     beta= 0.30
     Davidson diagonalization with overlap
     ethr =  2.16E-05,  avg # of iterations =  3.4

     total cpu time spent up to now is        8.6 secs

     total energy              =     -45.96125663 Ry
     estimated scf accuracy    <       0.00000402 Ry

     iteration #  6     ecut=    40.00 Ry     beta= 0.30
     Davidson diagonalization with overlap
     ethr =  2.51E-08,  avg # of iterations =  4.0

     total cpu time spent up to now is       10.2 secs

     total energy              =     -45.96126236 Ry
     estimated scf accuracy    <       0.00000137 Ry

     iteration #  7     ecut=    40.00 Ry     beta= 0.30
     Davidson diagonalization with overlap
     ethr =  8.56E-09,  avg # of iterations =  2.0

     total cpu time spent up to now is       11.4 secs

     total energy              =     -45.96126258 Ry
     estimated scf accuracy    <       0.00000058 Ry

     iteration #  8     ecut=    40.00 Ry     beta= 0.30
     Davidson diagonalization with overlap
     ethr =  3.62E-09,  avg # of iterations =  2.0

     total cpu time spent up to now is       12.5 secs

     total energy              =     -45.96126277 Ry
     estimated scf accuracy    <       0.00000007 Ry

     iteration #  9     ecut=    40.00 Ry     beta= 0.30
     Davidson diagonalization with overlap
     ethr =  4.59E-10,  avg # of iterations =  2.0

     total cpu time spent up to now is       13.6 secs

     End of self-consistent calculation

     Number of k-points >= 100: set verbosity='high' to print the bands.

     the Fermi energy is     3.3186 ev

!    total energy              =     -45.96126294 Ry
     estimated scf accuracy    <          6.1E-09 Ry
     smearing contrib. (-TS)   =      -0.00017611 Ry
     internal energy E=F+TS    =     -45.96108684 Ry

     The total energy is F=E-TS. E is the sum of the following terms:
     one-electron contribution =     -50.89711046 Ry
     hartree contribution      =      31.20405392 Ry
     xc contribution           =     -14.52598844 Ry
     ewald contribution        =     -11.74204185 Ry

     convergence has been achieved in   9 iterations

     Forces acting on atoms (cartesian axes, Ry/au):

     atom    1 type  1   force =    -0.00002037    0.00001176    0.00000000
     atom    2 type  1   force =     0.00002037   -0.00001176    0.00000000
     atom    3 type  1   force =     0.00002030   -0.00001172    0.00000000
     atom    4 type  1   force =    -0.00002030    0.00001172    0.00000000

     Total force =     0.000047     Total SCF correction =     0.000000


     Computing stress (Cartesian axis) and pressure

          total   stress  (Ry/bohr**3)                   (kbar)     P=       -5.24
  -0.00004321  -0.00000000   0.00000000           -6.36       -0.00        0.00
  -0.00000000  -0.00004321   0.00000000           -0.00       -6.36        0.00
   0.00000000   0.00000000  -0.00002047            0.00        0.00       -3.01


     Writing all to output data dir ./tmp/graphite_d_5p00000.save/
 
     init_run     :      0.59s CPU      0.69s WALL (       1 calls)
     electrons    :     11.91s CPU     12.58s WALL (       1 calls)
     forces       :      0.12s CPU      0.12s WALL (       1 calls)
     stress       :      0.23s CPU      0.23s WALL (       1 calls)

     Called by init_run:
     wfcinit      :      0.50s CPU      0.53s WALL (       1 calls)
     potinit      :      0.02s CPU      0.04s WALL (       1 calls)
     hinit0       :      0.04s CPU      0.08s WALL (       1 calls)

     Called by electrons:
     c_bands      :     10.21s CPU     10.75s WALL (       9 calls)
     sum_band     :      1.58s CPU      1.65s WALL (       9 calls)
     v_of_rho     :      0.08s CPU      0.11s WALL (      10 calls)
     newd         :      0.03s CPU      0.03s WALL (      10 calls)
     mix_rho      :      0.01s CPU      0.01s WALL (       9 calls)

     Called by c_bands:
     init_us_2    :      0.12s CPU      0.13s WALL (    4515 calls)
     init_us_2:cp :      0.12s CPU      0.12s WALL (    4515 calls)
     cegterg      :      9.72s CPU     10.06s WALL (    1935 calls)

     Called by *egterg:
     cdiaghg      :      0.99s CPU      1.01s WALL (    7938 calls)
     h_psi        :      7.79s CPU      8.09s WALL (    8153 calls)
     s_psi        :      0.15s CPU      0.15s WALL (    8153 calls)
     g_psi        :      0.04s CPU      0.04s WALL (    6003 calls)

     Called by h_psi:
     h_psi:calbec :      0.43s CPU      0.44s WALL (    8153 calls)
     vloc_psi     :      7.16s CPU      7.45s WALL (    8153 calls)
     add_vuspsi   :      0.16s CPU      0.16s WALL (    8153 calls)

     General routines
     calbec       :      0.62s CPU      0.63s WALL (   11163 calls)
     fft          :      0.07s CPU      0.17s WALL (     153 calls)
     ffts         :      0.00s CPU      0.01s WALL (      19 calls)
     fftw         :      7.88s CPU      8.19s WALL (  157354 calls)
     interpolate  :      0.00s CPU      0.01s WALL (      10 calls)
 
     Parallel routines
 
     PWSCF        :     13.45s CPU     15.04s WALL

 
   This run was terminated on:   3:37:34  11Jun2026            

=------------------------------------------------------------------------------=
   JOB DONE.
=------------------------------------------------------------------------------=
