
     Program PWSCF v.7.4.1 starts on 10Jul2025 at 17:22:15 

     This program is part of the open-source Quantum ESPRESSO suite
     for quantum simulation of materials; please cite
         "P. Giannozzi et al., J. Phys.:Condens. Matter 21 395502 (2009);
         "P. Giannozzi et al., J. Phys.:Condens. Matter 29 465901 (2017);
         "P. Giannozzi et al., J. Chem. Phys. 152 154105 (2020);
          URL http://www.quantum-espresso.org", 
     in publications or presentations arising from this work. More details at
     http://www.quantum-espresso.org/quote

     Parallel version (MPI & OpenMP), running on      80 processor cores
     Number of MPI processes:                80
     Threads/MPI process:                     1

     MPI processes distributed on     1 nodes
     3057927 MiB available memory on the printing compute node when the environment starts
 
     Waiting for input...
     Reading input from standard input

     Current dimensions of program PWSCF are:
     Max number of different atomic species (ntypx) = 10
     Max number of k-points (npk) =  40000
     Max angular momentum in pseudopotentials (lmaxx) =  4
     Message from routine setup:
     using ibrav=0 with symmetry is DISCOURAGED, use correct ibrav instead
 
     K-points division:     npool     =      20
     R & G space division:  proc/nbgrp/npool/nimage =       4
     Subspace diagonalization in iterative solution of the eigenvalue problem:
     a serial algorithm will be used

 
     Parallelization info
     --------------------
     sticks:   dense  smooth     PW     G-vecs:    dense   smooth      PW
     Min         749     299     88                31071     7857    1259
     Max         750     301     90                31076     7861    1262
     Sum        2997    1201    357               124289    31439    5041
 
     Using Slab Decomposition
 


     bravais-lattice index     =            0
     lattice parameter (alat)  =       7.3562  a.u.
     unit-cell volume          =     398.0737 (a.u.)^3
     number of atoms/cell      =            5
     number of atomic types    =            3
     number of electrons       =        40.00
     number of Kohn-Sham states=           20
     kinetic-energy cutoff     =      70.0000  Ry
     charge density cutoff     =     700.0000  Ry
     scf convergence threshold =      1.0E-08
     mixing beta               =       0.7000
     number of iterations used =            8  plain     mixing
     energy convergence thresh.=      1.0E-04
     force convergence thresh. =      1.0E-03
     press convergence thresh. =      5.0E-01
     Exchange-correlation= SLA  PW   PSX  PSC
                           (   1   4  10   8   0   0   0)
     nstep                     =           50


     celldm(1)=   7.356216  celldm(2)=   0.000000  celldm(3)=   0.000000
     celldm(4)=   0.000000  celldm(5)=   0.000000  celldm(6)=   0.000000

     crystal axes: (cart. coord. in units of alat)
               a(1) = (   1.000000   0.000000   0.000000 )  
               a(2) = (   0.000000   1.000000   0.000000 )  
               a(3) = (   0.000000   0.000000   1.000000 )  

     reciprocal axes: (cart. coord. in units 2 pi/alat)
               b(1) = (  1.000000  0.000000  0.000000 )  
               b(2) = (  0.000000  1.000000  0.000000 )  
               b(3) = (  0.000000  0.000000  1.000000 )  


     PseudoPot. # 1 for Sr read from file:
     /home/m0049/m004905/PSPOT/sr_pbesol_v1.uspp.F.UPF
     MD5 check sum: 635bff1625df5273dba4129a01ed8c82
     Pseudo is Ultrasoft + core correction, Zval = 10.0
     Generated by new atomic code, or converted to UPF format
     Using radial grid of  883 points,  6 beta functions with: 
                l(1) =   0
                l(2) =   0
                l(3) =   1
                l(4) =   1
                l(5) =   2
                l(6) =   2
     Q(r) pseudized with  6 coefficients,  rinner =    1.400   1.400   1.400
                                                       1.400   1.400

     PseudoPot. # 2 for Ti read from file:
     /home/m0049/m004905/PSPOT/ti_pbesol_v1.4.uspp.F.UPF
     MD5 check sum: 193cf2c0c3c6a4da613d69453fa7e3e9
     Pseudo is Ultrasoft + core correction, Zval = 12.0
     Generated by new atomic code, or converted to UPF format
     Using radial grid of  851 points,  6 beta functions with: 
                l(1) =   0
                l(2) =   0
                l(3) =   1
                l(4) =   1
                l(5) =   2
                l(6) =   2
     Q(r) pseudized with  6 coefficients,  rinner =    1.000   1.000   1.000
                                                       1.000   1.000

     PseudoPot. # 3 for O  read from file:
     /home/m0049/m004905/PSPOT/o_pbesol_v1.2.uspp.F.UPF
     MD5 check sum: 501638753501ef6325af9037351f7734
     Pseudo is Ultrasoft + core correction, Zval =  6.0
     Generated by new atomic code, or converted to UPF format
     Using radial grid of  737 points,  5 beta functions with: 
                l(1) =   0
                l(2) =   0
                l(3) =   1
                l(4) =   1
                l(5) =   2
     Q(r) pseudized with  8 coefficients,  rinner =    0.900   0.900   0.900
                                                       0.900   0.900

     atomic species   valence    mass     pseudopotential
     Sr               10.00    87.62000     Sr( 1.00)
     Ti               12.00    47.86700     Ti( 1.00)
     O                 6.00    15.99900     O ( 1.00)

     48 Sym. Ops., with inversion, found



   Cartesian axes

     site n.     atom                  positions (alat units)
         1        Sr     tau(   1) = (   0.0000000   0.0000000   0.0000000  )
         2        Ti     tau(   2) = (   0.5000000   0.5000000   0.5000000  )
         3        O      tau(   3) = (   0.5000000   0.5000000   0.0000000  )
         4        O      tau(   4) = (   0.5000000   0.0000000   0.5000000  )
         5        O      tau(   5) = (   0.0000000   0.5000000   0.5000000  )

     number of k points=    56
                       cart. coord. in units 2pi/alat
        k(    1) = (   0.0000000   0.0000000   0.0000000), wk =   0.0020000
        k(    2) = (   0.0000000   0.0000000   0.1000000), wk =   0.0120000
        k(    3) = (   0.0000000   0.0000000   0.2000000), wk =   0.0120000
        k(    4) = (   0.0000000   0.0000000   0.3000000), wk =   0.0120000
        k(    5) = (   0.0000000   0.0000000   0.4000000), wk =   0.0120000
        k(    6) = (   0.0000000   0.0000000  -0.5000000), wk =   0.0060000
        k(    7) = (   0.0000000   0.1000000   0.1000000), wk =   0.0240000
        k(    8) = (   0.0000000   0.1000000   0.2000000), wk =   0.0480000
        k(    9) = (   0.0000000   0.1000000   0.3000000), wk =   0.0480000
        k(   10) = (   0.0000000   0.1000000   0.4000000), wk =   0.0480000
        k(   11) = (   0.0000000   0.1000000  -0.5000000), wk =   0.0240000
        k(   12) = (   0.0000000   0.2000000   0.2000000), wk =   0.0240000
        k(   13) = (   0.0000000   0.2000000   0.3000000), wk =   0.0480000
        k(   14) = (   0.0000000   0.2000000   0.4000000), wk =   0.0480000
        k(   15) = (   0.0000000   0.2000000  -0.5000000), wk =   0.0240000
        k(   16) = (   0.0000000   0.3000000   0.3000000), wk =   0.0240000
        k(   17) = (   0.0000000   0.3000000   0.4000000), wk =   0.0480000
        k(   18) = (   0.0000000   0.3000000  -0.5000000), wk =   0.0240000
        k(   19) = (   0.0000000   0.4000000   0.4000000), wk =   0.0240000
        k(   20) = (   0.0000000   0.4000000  -0.5000000), wk =   0.0240000
        k(   21) = (   0.0000000  -0.5000000  -0.5000000), wk =   0.0060000
        k(   22) = (   0.1000000   0.1000000   0.1000000), wk =   0.0160000
        k(   23) = (   0.1000000   0.1000000   0.2000000), wk =   0.0480000
        k(   24) = (   0.1000000   0.1000000   0.3000000), wk =   0.0480000
        k(   25) = (   0.1000000   0.1000000   0.4000000), wk =   0.0480000
        k(   26) = (   0.1000000   0.1000000  -0.5000000), wk =   0.0240000
        k(   27) = (   0.1000000   0.2000000   0.2000000), wk =   0.0480000
        k(   28) = (   0.1000000   0.2000000   0.3000000), wk =   0.0960000
        k(   29) = (   0.1000000   0.2000000   0.4000000), wk =   0.0960000
        k(   30) = (   0.1000000   0.2000000  -0.5000000), wk =   0.0480000
        k(   31) = (   0.1000000   0.3000000   0.3000000), wk =   0.0480000
        k(   32) = (   0.1000000   0.3000000   0.4000000), wk =   0.0960000
        k(   33) = (   0.1000000   0.3000000  -0.5000000), wk =   0.0480000
        k(   34) = (   0.1000000   0.4000000   0.4000000), wk =   0.0480000
        k(   35) = (   0.1000000   0.4000000  -0.5000000), wk =   0.0480000
        k(   36) = (   0.1000000  -0.5000000  -0.5000000), wk =   0.0120000
        k(   37) = (   0.2000000   0.2000000   0.2000000), wk =   0.0160000
        k(   38) = (   0.2000000   0.2000000   0.3000000), wk =   0.0480000
        k(   39) = (   0.2000000   0.2000000   0.4000000), wk =   0.0480000
        k(   40) = (   0.2000000   0.2000000  -0.5000000), wk =   0.0240000
        k(   41) = (   0.2000000   0.3000000   0.3000000), wk =   0.0480000
        k(   42) = (   0.2000000   0.3000000   0.4000000), wk =   0.0960000
        k(   43) = (   0.2000000   0.3000000  -0.5000000), wk =   0.0480000
        k(   44) = (   0.2000000   0.4000000   0.4000000), wk =   0.0480000
        k(   45) = (   0.2000000   0.4000000  -0.5000000), wk =   0.0480000
        k(   46) = (   0.2000000  -0.5000000  -0.5000000), wk =   0.0120000
        k(   47) = (   0.3000000   0.3000000   0.3000000), wk =   0.0160000
        k(   48) = (   0.3000000   0.3000000   0.4000000), wk =   0.0480000
        k(   49) = (   0.3000000   0.3000000  -0.5000000), wk =   0.0240000
        k(   50) = (   0.3000000   0.4000000   0.4000000), wk =   0.0480000
        k(   51) = (   0.3000000   0.4000000  -0.5000000), wk =   0.0480000
        k(   52) = (   0.3000000  -0.5000000  -0.5000000), wk =   0.0120000
        k(   53) = (   0.4000000   0.4000000   0.4000000), wk =   0.0160000
        k(   54) = (   0.4000000   0.4000000  -0.5000000), wk =   0.0240000
        k(   55) = (   0.4000000  -0.5000000  -0.5000000), wk =   0.0120000
        k(   56) = (  -0.5000000  -0.5000000  -0.5000000), wk =   0.0020000

     Dense  grid:   124289 G-vectors     FFT dimensions: (  64,  64,  64)

     Smooth grid:    31439 G-vectors     FFT dimensions: (  40,  40,  40)

     Estimated max dynamical RAM per process >      39.19 MB

     Estimated total dynamical RAM >       2.50 GB

     Check: negative core charge=   -0.000002

     Initial potential from superposition of free atoms

     starting charge      38.9692, renormalised to      40.0000

     negative rho (up, down):  6.662E-02 0.000E+00
     Starting wfcs are   35 randomized atomic wfcs

     total cpu time spent up to now is        8.1 secs

     Self-consistent Calculation

     iteration #  1     ecut=    70.00 Ry     beta= 0.70
     Davidson diagonalization with overlap
     ethr =  1.00E-02,  avg # of iterations =  1.7

     negative rho (up, down):  6.523E-02 0.000E+00

     total cpu time spent up to now is        9.5 secs

     total energy              =    -286.18403157 Ry
     estimated scf accuracy    <       0.89984043 Ry

     iteration #  2     ecut=    70.00 Ry     beta= 0.70
     Davidson diagonalization with overlap
     ethr =  2.25E-03,  avg # of iterations =  5.7

     negative rho (up, down):  6.508E-02 0.000E+00

     total cpu time spent up to now is       10.3 secs

     total energy              =    -285.40194934 Ry
     estimated scf accuracy    <       7.29293892 Ry

     iteration #  3     ecut=    70.00 Ry     beta= 0.70
     Davidson diagonalization with overlap
     ethr =  2.25E-03,  avg # of iterations =  5.3

     negative rho (up, down):  6.657E-02 0.000E+00

     total cpu time spent up to now is       11.7 secs

     total energy              =    -286.63709412 Ry
     estimated scf accuracy    <       0.21414965 Ry

     iteration #  4     ecut=    70.00 Ry     beta= 0.70
     Davidson diagonalization with overlap
     ethr =  5.35E-04,  avg # of iterations =  2.0

     negative rho (up, down):  6.727E-02 0.000E+00

     total cpu time spent up to now is       11.9 secs

     total energy              =    -286.63078914 Ry
     estimated scf accuracy    <       0.07906006 Ry

     iteration #  5     ecut=    70.00 Ry     beta= 0.70
     Davidson diagonalization with overlap
     ethr =  1.98E-04,  avg # of iterations =  3.9

     negative rho (up, down):  6.737E-02 0.000E+00

     total cpu time spent up to now is       12.0 secs

     total energy              =    -286.64528074 Ry
     estimated scf accuracy    <       0.00067116 Ry

     iteration #  6     ecut=    70.00 Ry     beta= 0.70
     Davidson diagonalization with overlap
     ethr =  1.68E-06,  avg # of iterations =  5.2

     negative rho (up, down):  6.736E-02 0.000E+00

     total cpu time spent up to now is       12.2 secs

     total energy              =    -286.64600906 Ry
     estimated scf accuracy    <       0.00139348 Ry

     iteration #  7     ecut=    70.00 Ry     beta= 0.70
     Davidson diagonalization with overlap
     ethr =  1.68E-06,  avg # of iterations =  3.9

     negative rho (up, down):  6.735E-02 0.000E+00

     total cpu time spent up to now is       12.4 secs

     total energy              =    -286.64617377 Ry
     estimated scf accuracy    <       0.00001917 Ry

     iteration #  8     ecut=    70.00 Ry     beta= 0.70
     Davidson diagonalization with overlap
     ethr =  4.79E-08,  avg # of iterations =  4.9

     negative rho (up, down):  6.735E-02 0.000E+00

     total cpu time spent up to now is       12.6 secs

     total energy              =    -286.64618236 Ry
     estimated scf accuracy    <       0.00000728 Ry

     iteration #  9     ecut=    70.00 Ry     beta= 0.70
     Davidson diagonalization with overlap
     ethr =  1.82E-08,  avg # of iterations =  3.8

     negative rho (up, down):  6.734E-02 0.000E+00

     total cpu time spent up to now is       12.7 secs

     total energy              =    -286.64618336 Ry
     estimated scf accuracy    <       0.00000013 Ry

     iteration # 10     ecut=    70.00 Ry     beta= 0.70
     Davidson diagonalization with overlap
     ethr =  3.33E-10,  avg # of iterations =  5.1

     negative rho (up, down):  6.734E-02 0.000E+00

     total cpu time spent up to now is       12.9 secs

     total energy              =    -286.64618350 Ry
     estimated scf accuracy    <       0.00000017 Ry

     iteration # 11     ecut=    70.00 Ry     beta= 0.70
     Davidson diagonalization with overlap
     ethr =  3.33E-10,  avg # of iterations =  3.5

     negative rho (up, down):  6.734E-02 0.000E+00

     total cpu time spent up to now is       13.1 secs

     total energy              =    -286.64618351 Ry
     estimated scf accuracy    <       0.00000001 Ry

     iteration # 12     ecut=    70.00 Ry     beta= 0.70
     Davidson diagonalization with overlap
     ethr =  3.03E-11,  avg # of iterations =  4.7

     negative rho (up, down):  6.734E-02 0.000E+00

     total cpu time spent up to now is       13.3 secs

     total energy              =    -286.64618352 Ry
     estimated scf accuracy    <       0.00000003 Ry

     iteration # 13     ecut=    70.00 Ry     beta= 0.70
     Davidson diagonalization with overlap
     ethr =  3.03E-11,  avg # of iterations =  3.7

     negative rho (up, down):  6.734E-02 0.000E+00

     total cpu time spent up to now is       13.5 secs

     End of self-consistent calculation

          k = 0.0000 0.0000 0.0000 (  3887 PWs)   bands (ev):

   -46.0494 -22.5021 -22.4385 -22.4385 -22.4385  -7.2987  -6.2791  -6.2791
    -4.5298  -4.5298  -4.5298   7.1997   7.1997   7.1997   8.8473   8.8473
     8.8473   9.7085   9.7085   9.7085

          k = 0.0000 0.0000 0.1000 (  3911 PWs)   bands (ev):

   -46.0492 -22.5193 -22.4381 -22.4381 -22.4259  -7.3012  -6.2850  -6.2750
    -4.5249  -4.5249  -4.4564   7.0641   7.1912   7.1912   8.7086   8.7086
     8.7524   9.3811   9.6377   9.6377

          k = 0.0000 0.0000 0.2000 (  3911 PWs)   bands (ev):

   -46.0490 -22.5523 -22.4373 -22.4373 -22.4049  -7.3355  -6.2644  -6.2492
    -4.5121  -4.5121  -4.2834   6.7012   7.1711   7.1711   8.3772   8.3772
     8.5217   8.6964   9.5156   9.5156

          k = 0.0000 0.0000 0.3000 (  3940 PWs)   bands (ev):

   -46.0486 -22.5851 -22.4362 -22.4362 -22.3867  -7.4171  -6.2512  -6.1283
    -4.4962  -4.4962  -4.0976   6.2309   7.1538   7.1538   8.0183   8.0183
     8.0596   8.2645   9.4132   9.4132

          k = 0.0000 0.0000 0.4000 (  3948 PWs)   bands (ev):

   -46.0483 -22.6089 -22.4354 -22.4354 -22.3747  -7.4992  -6.2405  -5.9891
    -4.4832  -4.4832  -3.9641   5.8319   7.1531   7.1531   7.6520   7.7488
     7.7488   8.0741   9.3467   9.3467

          k = 0.0000 0.0000-0.5000 (  3948 PWs)   bands (ev):

   -46.0482 -22.6176 -22.4351 -22.4351 -22.3704  -7.5324  -6.2364  -5.9285
    -4.4782  -4.4782  -3.9165   5.6758   7.1600   7.1600   7.5148   7.6449
     7.6449   8.0049   9.3237   9.3237

          k = 0.0000 0.1000 0.1000 (  3906 PWs)   bands (ev):

   -46.0491 -22.5286 -22.4453 -22.4378 -22.4138  -7.2959  -6.2948  -6.2712
    -4.5199  -4.4871  -4.4229   6.9631   7.1481   7.1831   8.4088   8.5896
     8.8533   9.2459   9.4446   9.5509

          k = 0.0000 0.1000 0.2000 (  3924 PWs)   bands (ev):

   -46.0488 -22.5527 -22.4482 -22.4370 -22.3982  -7.3102  -6.2870  -6.2449
    -4.5069  -4.4640  -4.2770   6.6420   7.0812   7.1641   7.9758   8.2916
     8.6389   8.8546   9.2996   9.4009

          k = 0.0000 0.1000 0.3000 (  3946 PWs)   bands (ev):

   -46.0485 -22.5809 -22.4462 -22.4359 -22.3858  -7.3724  -6.2507  -6.1602
    -4.4906  -4.4491  -4.1079   6.2047   7.0039   7.1481   7.5242   7.9543
     8.1878   8.6803   9.1894   9.2807

          k = 0.0000 0.1000 0.4000 (  3939 PWs)   bands (ev):

   -46.0482 -22.6027 -22.4435 -22.4351 -22.3778  -7.4438  -6.2296  -6.0393
    -4.4773  -4.4371  -3.9860   5.8219   6.9319   7.1495   7.1998   7.6941
     7.9315   8.5400   9.1149   9.2060

          k = 0.0000 0.1000-0.5000 (  3948 PWs)   bands (ev):

   -46.0481 -22.6108 -22.4423 -22.4348 -22.3751  -7.4738  -6.2223  -5.9847
    -4.4722  -4.4321  -3.9425   5.6695   6.8977   7.0921   7.1580   7.5918
     7.8504   8.4866   9.0886   9.1807

          k = 0.0000 0.2000 0.2000 (  3934 PWs)   bands (ev):

   -46.0485 -22.5573 -22.4633 -22.4361 -22.3904  -7.2657  -6.3323  -6.2083
    -4.4931  -4.3774  -4.2345   6.4382   6.8933   7.1475   7.4636   8.0647
     8.5302   8.7821   9.1877   9.2002

          k = 0.0000 0.2000 0.3000 (  3952 PWs)   bands (ev):

   -46.0482 -22.5704 -22.4677 -22.4351 -22.3874  -7.2600  -6.3120  -6.1619
    -4.4760  -4.3412  -4.1301   6.1088   6.6613   7.0183   7.1339   7.7849
     8.2408   8.7292   9.0143   9.2051

          k = 0.0000 0.2000 0.4000 (  3941 PWs)   bands (ev):

   -46.0479 -22.5852 -22.4639 -22.4343 -22.3880  -7.2913  -6.2390  -6.1276
    -4.4620  -4.3288  -4.0381   5.7890   6.3659   6.8501   7.1388   7.5532
     8.0763   8.7013   8.9107   9.1573

          k = 0.0000 0.2000-0.5000 (  3954 PWs)   bands (ev):

   -46.0478 -22.5914 -22.4612 -22.4340 -22.3889  -7.3094  -6.1974  -6.1185
    -4.4566  -4.3242  -4.0041   5.6522   6.2467   6.8149   7.1516   7.4564
     8.0258   8.6908   8.8767   9.1301

          k = 0.0000 0.3000 0.3000 (  3944 PWs)   bands (ev):

   -46.0478 -22.5607 -22.4854 -22.4341 -22.3947  -7.1416  -6.3726  -6.1377
    -4.4577  -4.2437  -4.1327   5.8998   6.4175   6.4471   7.1206   7.5699
     8.2197   8.5743   8.7784   9.4665

          k = 0.0000 0.3000 0.4000 (  3936 PWs)   bands (ev):

   -46.0475 -22.5603 -22.4877 -22.4333 -22.4051  -7.0817  -6.3387  -6.1546
    -4.4428  -4.2130  -4.0877   5.6886   5.9400   6.3438   7.1244   7.3818
     8.2171   8.5205   8.6326   9.5825

          k = 0.0000 0.3000-0.5000 (  3950 PWs)   bands (ev):

   -46.0474 -22.5626 -22.4843 -22.4330 -22.4108  -7.0711  -6.2649  -6.2083
    -4.4371  -4.2083  -4.0624   5.6210   5.7327   6.3249   7.1406   7.2955
     8.2316   8.4948   8.5846   9.6110

          k = 0.0000 0.4000 0.4000 (  3958 PWs)   bands (ev):

   -46.0472 -22.5368 -22.5032 -22.4325 -22.4259  -6.8862  -6.4014  -6.2166
    -4.4272  -4.1353  -4.1047   5.4848   5.7012   5.9842   7.1177   7.2384
     8.3320   8.4517   8.4814   9.8133

          k = 0.0000 0.4000-0.5000 (  3946 PWs)   bands (ev):

   -46.0471 -22.5300 -22.5029 -22.4377 -22.4322  -6.8066  -6.3726  -6.2986
    -4.4212  -4.1240  -4.0894   5.4050   5.5437   5.9233   7.1286   7.1700
     8.3905   8.3968   8.4586   9.8821

          k = 0.0000-0.5000-0.5000 (  3932 PWs)   bands (ev):

   -46.0470 -22.5100 -22.5100 -22.4556 -22.4318  -6.6303  -6.4117  -6.4117
    -4.4151  -4.0935  -4.0935   5.2924   5.4631   5.8162   7.1231   7.1231
     8.3240   8.4598   8.4598   9.9658

          k = 0.1000 0.1000 0.1000 (  3902 PWs)   bands (ev):

   -46.0490 -22.5345 -22.4450 -22.4450 -22.4051  -7.2845  -6.2866  -6.2866
    -4.4892  -4.4892  -4.3838   6.8595   7.1422   7.1422   8.3206   8.3206
     8.9511   9.0546   9.4034   9.4034

          k = 0.1000 0.1000 0.2000 (  3924 PWs)   bands (ev):

   -46.0487 -22.5525 -22.4503 -22.4441 -22.3934  -7.2822  -6.2804  -6.2649
    -4.4948  -4.4446  -4.2603   6.5713   7.0374   7.1279   7.9146   7.9944
     8.6636   8.9304   9.1875   9.3003

          k = 0.1000 0.1000 0.3000 (  3933 PWs)   bands (ev):

   -46.0484 -22.5767 -22.4483 -22.4431 -22.3852  -7.3270  -6.2374  -6.1941
    -4.5023  -4.4047  -4.1145   6.1748   6.9015   7.1151   7.4984   7.5586
     8.4503   8.7848   9.0063   9.1966

          k = 0.1000 0.1000 0.4000 (  3949 PWs)   bands (ev):

   -46.0481 -22.5967 -22.4441 -22.4422 -22.3808  -7.3882  -6.2147  -6.0781
    -4.5089  -4.3733  -4.0086   5.8121   6.7920   7.1211   7.1389   7.3092
     8.3732   8.6348   8.8731   9.1285

          k = 0.1000 0.1000-0.5000 (  3954 PWs)   bands (ev):

   -46.0479 -22.6043 -22.4421 -22.4419 -22.3794  -7.4151  -6.2060  -6.0258
    -4.5115  -4.3611  -3.9709   5.6639   6.7538   7.0141   7.1727   7.1734
     8.3565   8.5743   8.8216   9.1049

          k = 0.1000 0.2000 0.2000 (  3936 PWs)   bands (ev):

   -46.0484 -22.5552 -22.4629 -22.4453 -22.3881  -7.2293  -6.3147  -6.2304
    -4.4860  -4.3961  -4.2025   6.3659   6.8921   7.0768   7.4701   7.8132
     8.3341   8.9722   9.1190   9.1818

          k = 0.1000 0.2000 0.3000 (  3946 PWs)   bands (ev):

   -46.0481 -22.5662 -22.4675 -22.4439 -22.3875  -7.2122  -6.2913  -6.1800
    -4.4977  -4.3387  -4.1225   6.0734   6.6429   7.0330   7.0492   7.5012
     8.2168   8.8198   8.9923   9.2016

          k = 0.1000 0.2000 0.4000 (  3931 PWs)   bands (ev):

   -46.0478 -22.5799 -22.4636 -22.4422 -22.3904  -7.2353  -6.2172  -6.1404
    -4.5151  -4.2899  -4.0613   5.7806   6.3572   6.8345   7.0451   7.2426
     8.2785   8.6197   8.9296   9.1601

          k = 0.1000 0.2000-0.5000 (  3948 PWs)   bands (ev):

   -46.0477 -22.5858 -22.4608 -22.4412 -22.3923  -7.2508  -6.1747  -6.1291
    -4.5227  -4.2703  -4.0395   5.6488   6.2482   6.7862   7.0746   7.1196
     8.3834   8.4702   8.9082   9.1352

          k = 0.1000 0.3000 0.3000 (  3946 PWs)   bands (ev):

   -46.0477 -22.5563 -22.4850 -22.4427 -22.3954  -7.0897  -6.3455  -6.1395
    -4.4914  -4.2808  -4.1159   5.8848   6.4198   6.4808   6.9925   7.3602
     8.0510   8.7863   8.7898   9.4673

          k = 0.1000 0.3000 0.4000 (  3937 PWs)   bands (ev):

   -46.0474 -22.5560 -22.4873 -22.4411 -22.4065  -7.0252  -6.3121  -6.1400
    -4.4969  -4.2270  -4.1073   5.6964   5.9725   6.3498   6.9839   7.1725
     8.0901   8.6239   8.7637   9.5851

          k = 0.1000 0.3000-0.5000 (  3938 PWs)   bands (ev):

   -46.0473 -22.5584 -22.4840 -22.4401 -22.4127  -7.0126  -6.2495  -6.1766
    -4.5010  -4.2001  -4.1074   5.6211   5.7845   6.3274   7.0377   7.0423
     8.1390   8.5501   8.7500   9.6142

          k = 0.1000 0.4000 0.4000 (  3944 PWs)   bands (ev):

   -46.0471 -22.5337 -22.5028 -22.4402 -22.4260  -6.8284  -6.3681  -6.1875
    -4.4776  -4.1860  -4.1286   5.5382   5.7237   5.9863   6.9635   7.0713
     8.0446   8.6323   8.7006   9.8186

          k = 0.1000 0.4000-0.5000 (  3940 PWs)   bands (ev):

   -46.0470 -22.5278 -22.5025 -22.4393 -22.4376  -6.7475  -6.3420  -6.2601
    -4.4702  -4.1609  -4.1422   5.4866   5.5476   5.9259   6.9911   6.9934
     8.0383   8.6380   8.6870   9.8888

          k = 0.1000-0.5000-0.5000 (  3928 PWs)   bands (ev):

   -46.0469 -22.5096 -22.5096 -22.4537 -22.4390  -6.5655  -6.3762  -6.3762
    -4.4561  -4.1492  -4.1492   5.3846   5.4678   5.8180   6.9728   6.9728
     8.0066   8.6765   8.6765   9.9742

          k = 0.2000 0.2000 0.2000 (  3956 PWs)   bands (ev):

   -46.0481 -22.5519 -22.4620 -22.4620 -22.3870  -7.1486  -6.2665  -6.2665
    -4.4471  -4.4471  -4.1428   6.1897   6.8857   6.8857   7.4233   7.4233
     7.8305   9.0805   9.0805   9.2329

          k = 0.2000 0.2000 0.3000 (  3924 PWs)   bands (ev):

   -46.0478 -22.5553 -22.4697 -22.4609 -22.3909  -7.0900  -6.2555  -6.2027
    -4.5148  -4.3691  -4.1050   5.9774   6.5792   6.8569   7.0300   7.1270
     7.7090   9.0201   9.0516   9.2915

          k = 0.2000 0.2000 0.4000 (  3914 PWs)   bands (ev):

   -46.0475 -22.5650 -22.4648 -22.4599 -22.3982  -7.0816  -6.1957  -6.1467
    -4.5741  -4.2765  -4.1079   5.7560   6.2637   6.7586   6.7749   7.0057
     7.7693   8.9708   8.9991   9.2652

          k = 0.2000 0.2000-0.5000 (  3936 PWs)   bands (ev):

   -46.0474 -22.5700 -22.4603 -22.4596 -22.4024  -7.0868  -6.1616  -6.1241
    -4.5980  -4.2224  -4.1285   5.6397   6.1600   6.6785   6.7261   6.9860
     7.8022   8.9537   8.9702   9.2426

          k = 0.2000 0.3000 0.3000 (  3927 PWs)   bands (ev):

   -46.0474 -22.5447 -22.4840 -22.4628 -22.3997  -6.9534  -6.2695  -6.1482
    -4.5346  -4.3830  -4.1092   5.8479   6.4262   6.5686   6.7382   7.0099
     7.4032   9.0146   9.1132   9.4962

          k = 0.2000 0.3000 0.4000 (  3937 PWs)   bands (ev):

   -46.0471 -22.5441 -22.4862 -22.4607 -22.4116  -6.8709  -6.2434  -6.1038
    -4.5909  -4.3158  -4.1520   5.7086   6.0511   6.3713   6.6879   6.8605
     7.4128   9.0109   9.1046   9.6049

          k = 0.2000 0.3000-0.5000 (  3930 PWs)   bands (ev):

   -46.0470 -22.5469 -22.4830 -22.4588 -22.4184  -6.8502  -6.2104  -6.0966
    -4.6184  -4.2270  -4.2258   5.6206   5.9078   6.3325   6.6665   6.8089
     7.4355   9.0265   9.0764   9.6328

          k = 0.2000 0.4000 0.4000 (  3940 PWs)   bands (ev):

   -46.0468 -22.5255 -22.5018 -22.4592 -22.4280  -6.6716  -6.2730  -6.1117
    -4.5885  -4.3262  -4.2106   5.6233   5.8360   5.9921   6.6762   6.7733
     7.3183   9.0552   9.1298   9.8353

          k = 0.2000 0.4000-0.5000 (  3942 PWs)   bands (ev):

   -46.0467 -22.5220 -22.5015 -22.4579 -22.4375  -6.5865  -6.2559  -6.1540
    -4.5881  -4.2863  -4.2715   5.5557   5.6995   5.9330   6.6873   6.7250
     7.3048   9.0982   9.1127   9.9075

          k = 0.2000-0.5000-0.5000 (  3940 PWs)   bands (ev):

   -46.0466 -22.5085 -22.5085 -22.4576 -22.4487  -6.3908  -6.2745  -6.2745
    -4.5607  -4.3031  -4.3031   5.4770   5.6256   5.8226   6.6978   6.6978
     7.2710   9.1280   9.1280   9.9962

          k = 0.3000 0.3000 0.3000 (  3947 PWs)   bands (ev):

   -46.0470 -22.5311 -22.4828 -22.4828 -22.4089  -6.7870  -6.1629  -6.1629
    -4.5220  -4.5220  -4.1510   5.8020   6.4345   6.4345   6.6798   6.7190
     6.7190   9.2653   9.2653   9.6042

          k = 0.3000 0.3000 0.4000 (  3939 PWs)   bands (ev):

   -46.0468 -22.5279 -22.4867 -22.4818 -22.4207  -6.6615  -6.1686  -6.0617
    -4.6495  -4.4500  -4.2345   5.7114   6.0902   6.3701   6.4416   6.5364
     6.8070   9.3014   9.4188   9.6985

          k = 0.3000 0.3000-0.5000 (  3918 PWs)   bands (ev):

   -46.0466 -22.5306 -22.4821 -22.4814 -22.4273  -6.6188  -6.1656  -6.0180
    -4.7033  -4.3707  -4.3155   5.6114   5.9975   6.2874   6.4448   6.4743
     6.8475   9.3099   9.4667   9.7256

          k = 0.3000 0.4000 0.4000 (  3948 PWs)   bands (ev):

   -46.0465 -22.5145 -22.5005 -22.4821 -22.4316  -6.4606  -6.1342  -6.0274
    -4.6840  -4.5200  -4.3472   5.6521   5.9999   6.0347   6.3853   6.5187
     6.5896   9.4744   9.5307   9.8658

          k = 0.3000 0.4000-0.5000 (  3942 PWs)   bands (ev):

   -46.0463 -22.5147 -22.5002 -22.4808 -22.4374  -6.3655  -6.1344  -6.0175
    -4.7139  -4.4799  -4.4391   5.5528   5.9414   5.9596   6.4184   6.4346
     6.5995   9.5155   9.5724   9.9349

          k = 0.3000-0.5000-0.5000 (  3960 PWs)   bands (ev):

   -46.0462 -22.5072 -22.5072 -22.4804 -22.4425  -6.1636  -6.1242  -6.1242
    -4.6852  -4.5171  -4.5171   5.4729   5.8283   5.9237   6.4605   6.4605
     6.4933   9.5903   9.5903  10.0238

          k = 0.4000 0.4000 0.4000 (  3948 PWs)   bands (ev):

   -46.0462 -22.5056 -22.4994 -22.4994 -22.4355  -6.2537  -5.9933  -5.9933
    -4.7050  -4.7050  -4.5033   5.5912   6.0073   6.0073   6.1645   6.3565
     6.3565   9.7680   9.7680   9.9262

          k = 0.4000 0.4000-0.5000 (  3926 PWs)   bands (ev):

   -46.0461 -22.5085 -22.4993 -22.4990 -22.4375  -6.1379  -6.0181  -5.9279
    -4.7871  -4.6535  -4.6181   5.4926   5.9194   6.0106   6.1463   6.3010
     6.3700   9.8190   9.8722   9.9802

          k = 0.4000-0.5000-0.5000 (  3932 PWs)   bands (ev):

   -46.0459 -22.5062 -22.5062 -22.4988 -22.4375  -5.9694  -5.9675  -5.9675
    -4.7824  -4.7245  -4.7245   5.4142   5.8329   5.9764   6.1655   6.3094
     6.3094   9.9299   9.9299  10.0464

          k =-0.5000-0.5000-0.5000 (  3912 PWs)   bands (ev):

   -46.0458 -22.5057 -22.5057 -22.5057 -22.4356  -5.8925  -5.8925  -5.8925
    -4.8188  -4.8188  -4.8188   5.3453   5.8347   5.8347   6.2581   6.2581
     6.2581  10.0551  10.0551  10.0551

     highest occupied level (ev):    10.0551

!    total energy              =    -286.64618352 Ry
     estimated scf accuracy    <          3.1E-09 Ry

     The total energy is the sum of the following terms:
     one-electron contribution =     -75.84498110 Ry
     hartree contribution      =      60.25155029 Ry
     xc contribution           =     -57.87679214 Ry
     ewald contribution        =    -213.17596056 Ry

     convergence has been achieved in  13 iterations

     negative rho (up, down):  6.734E-02 0.000E+00

     Forces acting on atoms (cartesian axes, Ry/au):

     atom    1 type  1   force =     0.00000000    0.00000000    0.00000000
     atom    2 type  2   force =     0.00000000    0.00000000   -0.00000000
     atom    3 type  3   force =     0.00000000    0.00000000   -0.00000000
     atom    4 type  3   force =     0.00000000   -0.00000000   -0.00000000
     atom    5 type  3   force =     0.00000000   -0.00000000   -0.00000000

     Total force =     0.000000     Total SCF correction =     0.000000


     Computing stress (Cartesian axis) and pressure


     negative rho (up, down):  6.734E-02 0.000E+00
          total   stress  (Ry/bohr**3)                   (kbar)     P=       -0.19
  -0.00000129   0.00000000   0.00000000           -0.19        0.00        0.00
   0.00000000  -0.00000129   0.00000000            0.00       -0.19        0.00
   0.00000000   0.00000000  -0.00000129            0.00        0.00       -0.19


     BFGS Geometry Optimization
     Energy error            =      4.9E-08 Ry
     Gradient error          =      2.6E-31 Ry/Bohr
     Cell gradient error     =      1.9E-01 kbar

     bfgs converged in   1 scf cycles and   0 bfgs steps
     (criteria: energy <  1.0E-04 Ry, force <  1.0E-03 Ry/Bohr, cell <  5.0E-01 kbar)

     End of BFGS Geometry Optimization

     Final enthalpy           =    -286.6461835196 Ry
Begin final coordinates
     new unit-cell volume =    398.07371 a.u.^3 (    58.98844 Ang^3 )
     density =      5.16512 g/cm^3

CELL_PARAMETERS (angstrom)
   3.892742093   0.000000000   0.000000000
   0.000000000   3.892742093   0.000000000
   0.000000000   0.000000000   3.892742093

ATOMIC_POSITIONS (crystal)
Sr               0.0000000000        0.0000000000        0.0000000000
Ti               0.5000000000        0.5000000000        0.5000000000
O                0.5000000000        0.5000000000        0.0000000000
O                0.5000000000        0.0000000000        0.5000000000
O                0.0000000000        0.5000000000        0.5000000000
End final coordinates



     Writing config-only to output data dir ./out/SrTiO3.save/ :
     XML data file

     Final scf calculation at the relaxed structure.
     The G-vectors are recalculated for the final unit cell
     Results may differ from those at the preceding step.
 
     Parallelization info
     --------------------
     sticks:   dense  smooth     PW     G-vecs:    dense   smooth      PW
     Min         749     299     88                31071     7857    1259
     Max         750     301     90                31076     7861    1262
     Sum        2997    1201    357               124289    31439    5041
 
     Using Slab Decomposition
 


     bravais-lattice index     =            0
     lattice parameter (alat)  =       7.3562  a.u.
     unit-cell volume          =     398.0737 (a.u.)^3
     number of atoms/cell      =            5
     number of atomic types    =            3
     number of electrons       =        40.00
     number of Kohn-Sham states=           20
     kinetic-energy cutoff     =      70.0000  Ry
     charge density cutoff     =     700.0000  Ry
     scf convergence threshold =      1.0E-08
     mixing beta               =       0.7000
     number of iterations used =            8  plain     mixing
     press convergence thresh. =      5.0E-01
     Exchange-correlation= SLA  PW   PSX  PSC
                           (   1   4  10   8   0   0   0)

     celldm(1)=   7.356216  celldm(2)=   0.000000  celldm(3)=   0.000000
     celldm(4)=   0.000000  celldm(5)=   0.000000  celldm(6)=   0.000000

     crystal axes: (cart. coord. in units of alat)
               a(1) = (   1.000000   0.000000   0.000000 )  
               a(2) = (   0.000000   1.000000   0.000000 )  
               a(3) = (   0.000000   0.000000   1.000000 )  

     reciprocal axes: (cart. coord. in units 2 pi/alat)
               b(1) = (  1.000000  0.000000  0.000000 )  
               b(2) = (  0.000000  1.000000  0.000000 )  
               b(3) = (  0.000000  0.000000  1.000000 )  


     PseudoPot. # 1 for Sr read from file:
     /home/m0049/m004905/PSPOT/sr_pbesol_v1.uspp.F.UPF
     MD5 check sum: 635bff1625df5273dba4129a01ed8c82
     Pseudo is Ultrasoft + core correction, Zval = 10.0
     Generated by new atomic code, or converted to UPF format
     Using radial grid of  883 points,  6 beta functions with: 
                l(1) =   0
                l(2) =   0
                l(3) =   1
                l(4) =   1
                l(5) =   2
                l(6) =   2
     Q(r) pseudized with  6 coefficients,  rinner =    1.400   1.400   1.400
                                                       1.400   1.400

     PseudoPot. # 2 for Ti read from file:
     /home/m0049/m004905/PSPOT/ti_pbesol_v1.4.uspp.F.UPF
     MD5 check sum: 193cf2c0c3c6a4da613d69453fa7e3e9
     Pseudo is Ultrasoft + core correction, Zval = 12.0
     Generated by new atomic code, or converted to UPF format
     Using radial grid of  851 points,  6 beta functions with: 
                l(1) =   0
                l(2) =   0
                l(3) =   1
                l(4) =   1
                l(5) =   2
                l(6) =   2
     Q(r) pseudized with  6 coefficients,  rinner =    1.000   1.000   1.000
                                                       1.000   1.000

     PseudoPot. # 3 for O  read from file:
     /home/m0049/m004905/PSPOT/o_pbesol_v1.2.uspp.F.UPF
     MD5 check sum: 501638753501ef6325af9037351f7734
     Pseudo is Ultrasoft + core correction, Zval =  6.0
     Generated by new atomic code, or converted to UPF format
     Using radial grid of  737 points,  5 beta functions with: 
                l(1) =   0
                l(2) =   0
                l(3) =   1
                l(4) =   1
                l(5) =   2
     Q(r) pseudized with  8 coefficients,  rinner =    0.900   0.900   0.900
                                                       0.900   0.900

     atomic species   valence    mass     pseudopotential
     Sr               10.00    87.62000     Sr( 1.00)
     Ti               12.00    47.86700     Ti( 1.00)
     O                 6.00    15.99900     O ( 1.00)

     48 Sym. Ops., with inversion, found



   Cartesian axes

     site n.     atom                  positions (alat units)
         1        Sr     tau(   1) = (   0.0000000   0.0000000   0.0000000  )
         2        Ti     tau(   2) = (   0.5000000   0.5000000   0.5000000  )
         3        O      tau(   3) = (   0.5000000   0.5000000   0.0000000  )
         4        O      tau(   4) = (   0.5000000   0.0000000   0.5000000  )
         5        O      tau(   5) = (   0.0000000   0.5000000   0.5000000  )

     number of k points=    56
                       cart. coord. in units 2pi/alat
        k(    1) = (   0.0000000   0.0000000   0.0000000), wk =   0.0020000
        k(    2) = (   0.0000000   0.0000000   0.1000000), wk =   0.0120000
        k(    3) = (   0.0000000   0.0000000   0.2000000), wk =   0.0120000
        k(    4) = (   0.0000000   0.0000000   0.3000000), wk =   0.0120000
        k(    5) = (   0.0000000   0.0000000   0.4000000), wk =   0.0120000
        k(    6) = (   0.0000000   0.0000000  -0.5000000), wk =   0.0060000
        k(    7) = (   0.0000000   0.1000000   0.1000000), wk =   0.0240000
        k(    8) = (   0.0000000   0.1000000   0.2000000), wk =   0.0480000
        k(    9) = (   0.0000000   0.1000000   0.3000000), wk =   0.0480000
        k(   10) = (   0.0000000   0.1000000   0.4000000), wk =   0.0480000
        k(   11) = (   0.0000000   0.1000000  -0.5000000), wk =   0.0240000
        k(   12) = (   0.0000000   0.2000000   0.2000000), wk =   0.0240000
        k(   13) = (   0.0000000   0.2000000   0.3000000), wk =   0.0480000
        k(   14) = (   0.0000000   0.2000000   0.4000000), wk =   0.0480000
        k(   15) = (   0.0000000   0.2000000  -0.5000000), wk =   0.0240000
        k(   16) = (   0.0000000   0.3000000   0.3000000), wk =   0.0240000
        k(   17) = (   0.0000000   0.3000000   0.4000000), wk =   0.0480000
        k(   18) = (   0.0000000   0.3000000  -0.5000000), wk =   0.0240000
        k(   19) = (   0.0000000   0.4000000   0.4000000), wk =   0.0240000
        k(   20) = (   0.0000000   0.4000000  -0.5000000), wk =   0.0240000
        k(   21) = (   0.0000000  -0.5000000  -0.5000000), wk =   0.0060000
        k(   22) = (   0.1000000   0.1000000   0.1000000), wk =   0.0160000
        k(   23) = (   0.1000000   0.1000000   0.2000000), wk =   0.0480000
        k(   24) = (   0.1000000   0.1000000   0.3000000), wk =   0.0480000
        k(   25) = (   0.1000000   0.1000000   0.4000000), wk =   0.0480000
        k(   26) = (   0.1000000   0.1000000  -0.5000000), wk =   0.0240000
        k(   27) = (   0.1000000   0.2000000   0.2000000), wk =   0.0480000
        k(   28) = (   0.1000000   0.2000000   0.3000000), wk =   0.0960000
        k(   29) = (   0.1000000   0.2000000   0.4000000), wk =   0.0960000
        k(   30) = (   0.1000000   0.2000000  -0.5000000), wk =   0.0480000
        k(   31) = (   0.1000000   0.3000000   0.3000000), wk =   0.0480000
        k(   32) = (   0.1000000   0.3000000   0.4000000), wk =   0.0960000
        k(   33) = (   0.1000000   0.3000000  -0.5000000), wk =   0.0480000
        k(   34) = (   0.1000000   0.4000000   0.4000000), wk =   0.0480000
        k(   35) = (   0.1000000   0.4000000  -0.5000000), wk =   0.0480000
        k(   36) = (   0.1000000  -0.5000000  -0.5000000), wk =   0.0120000
        k(   37) = (   0.2000000   0.2000000   0.2000000), wk =   0.0160000
        k(   38) = (   0.2000000   0.2000000   0.3000000), wk =   0.0480000
        k(   39) = (   0.2000000   0.2000000   0.4000000), wk =   0.0480000
        k(   40) = (   0.2000000   0.2000000  -0.5000000), wk =   0.0240000
        k(   41) = (   0.2000000   0.3000000   0.3000000), wk =   0.0480000
        k(   42) = (   0.2000000   0.3000000   0.4000000), wk =   0.0960000
        k(   43) = (   0.2000000   0.3000000  -0.5000000), wk =   0.0480000
        k(   44) = (   0.2000000   0.4000000   0.4000000), wk =   0.0480000
        k(   45) = (   0.2000000   0.4000000  -0.5000000), wk =   0.0480000
        k(   46) = (   0.2000000  -0.5000000  -0.5000000), wk =   0.0120000
        k(   47) = (   0.3000000   0.3000000   0.3000000), wk =   0.0160000
        k(   48) = (   0.3000000   0.3000000   0.4000000), wk =   0.0480000
        k(   49) = (   0.3000000   0.3000000  -0.5000000), wk =   0.0240000
        k(   50) = (   0.3000000   0.4000000   0.4000000), wk =   0.0480000
        k(   51) = (   0.3000000   0.4000000  -0.5000000), wk =   0.0480000
        k(   52) = (   0.3000000  -0.5000000  -0.5000000), wk =   0.0120000
        k(   53) = (   0.4000000   0.4000000   0.4000000), wk =   0.0160000
        k(   54) = (   0.4000000   0.4000000  -0.5000000), wk =   0.0240000
        k(   55) = (   0.4000000  -0.5000000  -0.5000000), wk =   0.0120000
        k(   56) = (  -0.5000000  -0.5000000  -0.5000000), wk =   0.0020000

     Dense  grid:   124289 G-vectors     FFT dimensions: (  64,  64,  64)

     Smooth grid:    31439 G-vectors     FFT dimensions: (  40,  40,  40)

     Estimated max dynamical RAM per process >      39.90 MB

     Estimated total dynamical RAM >       2.55 GB

     Check: negative core charge=   -0.000002

     Initial potential from superposition of free atoms

     starting charge      38.9692, renormalised to      40.0000

     negative rho (up, down):  6.662E-02 0.000E+00
     Starting wfcs are   35 randomized atomic wfcs

     total cpu time spent up to now is       15.8 secs

     Self-consistent Calculation

     iteration #  1     ecut=    70.00 Ry     beta= 0.70
     Davidson diagonalization with overlap
     ethr =  1.00E-06,  avg # of iterations =  7.9

     negative rho (up, down):  6.475E-02 0.000E+00

     total cpu time spent up to now is       16.1 secs

     total energy              =    -286.23769587 Ry
     estimated scf accuracy    <       0.84217131 Ry

     iteration #  2     ecut=    70.00 Ry     beta= 0.70
     Davidson diagonalization with overlap
     ethr =  2.11E-03,  avg # of iterations =  5.6

     negative rho (up, down):  6.485E-02 0.000E+00

     total cpu time spent up to now is       16.3 secs

     total energy              =    -285.57724997 Ry
     estimated scf accuracy    <       5.88798305 Ry

     iteration #  3     ecut=    70.00 Ry     beta= 0.70
     Davidson diagonalization with overlap
     ethr =  2.11E-03,  avg # of iterations =  5.2

     negative rho (up, down):  6.656E-02 0.000E+00

     total cpu time spent up to now is       16.5 secs

     total energy              =    -286.63813658 Ry
     estimated scf accuracy    <       0.21438630 Ry

     iteration #  4     ecut=    70.00 Ry     beta= 0.70
     Davidson diagonalization with overlap
     ethr =  5.36E-04,  avg # of iterations =  2.0

     negative rho (up, down):  6.734E-02 0.000E+00

     total cpu time spent up to now is       16.7 secs

     total energy              =    -286.62877411 Ry
     estimated scf accuracy    <       0.08230375 Ry

     iteration #  5     ecut=    70.00 Ry     beta= 0.70
     Davidson diagonalization with overlap
     ethr =  2.06E-04,  avg # of iterations =  3.9

     negative rho (up, down):  6.744E-02 0.000E+00

     total cpu time spent up to now is       16.8 secs

     total energy              =    -286.64559747 Ry
     estimated scf accuracy    <       0.00032126 Ry

     iteration #  6     ecut=    70.00 Ry     beta= 0.70
     Davidson diagonalization with overlap
     ethr =  8.03E-07,  avg # of iterations =  5.5

     negative rho (up, down):  6.738E-02 0.000E+00

     total cpu time spent up to now is       17.0 secs

     total energy              =    -286.64596154 Ry
     estimated scf accuracy    <       0.00202927 Ry

     iteration #  7     ecut=    70.00 Ry     beta= 0.70
     Davidson diagonalization with overlap
     ethr =  8.03E-07,  avg # of iterations =  4.6

     negative rho (up, down):  6.736E-02 0.000E+00

     total cpu time spent up to now is       17.2 secs

     total energy              =    -286.64617032 Ry
     estimated scf accuracy    <       0.00004395 Ry

     iteration #  8     ecut=    70.00 Ry     beta= 0.70
     Davidson diagonalization with overlap
     ethr =  1.10E-07,  avg # of iterations =  4.0

     negative rho (up, down):  6.735E-02 0.000E+00

     total cpu time spent up to now is       17.4 secs

     total energy              =    -286.64618258 Ry
     estimated scf accuracy    <       0.00000540 Ry

     iteration #  9     ecut=    70.00 Ry     beta= 0.70
     Davidson diagonalization with overlap
     ethr =  1.35E-08,  avg # of iterations =  3.6

     negative rho (up, down):  6.735E-02 0.000E+00

     total cpu time spent up to now is       17.6 secs

     total energy              =    -286.64618342 Ry
     estimated scf accuracy    <       0.00000007 Ry

     iteration # 10     ecut=    70.00 Ry     beta= 0.70
     Davidson diagonalization with overlap
     ethr =  1.63E-10,  avg # of iterations =  5.2

     negative rho (up, down):  6.734E-02 0.000E+00

     total cpu time spent up to now is       17.8 secs

     total energy              =    -286.64618352 Ry
     estimated scf accuracy    <       0.00000006 Ry

     iteration # 11     ecut=    70.00 Ry     beta= 0.70
     Davidson diagonalization with overlap
     ethr =  1.56E-10,  avg # of iterations =  2.3

     negative rho (up, down):  6.734E-02 0.000E+00

     total cpu time spent up to now is       17.9 secs

     total energy              =    -286.64618352 Ry
     estimated scf accuracy    <       0.00000001 Ry

     iteration # 12     ecut=    70.00 Ry     beta= 0.70
     Davidson diagonalization with overlap
     ethr =  3.04E-11,  avg # of iterations =  4.1

     negative rho (up, down):  6.734E-02 0.000E+00

     total cpu time spent up to now is       18.1 secs

     total energy              =    -286.64618352 Ry
     estimated scf accuracy    <       0.00000001 Ry

     iteration # 13     ecut=    70.00 Ry     beta= 0.70
     Davidson diagonalization with overlap
     ethr =  2.81E-11,  avg # of iterations =  2.2

     negative rho (up, down):  6.734E-02 0.000E+00

     total cpu time spent up to now is       18.3 secs

     End of self-consistent calculation

          k = 0.0000 0.0000 0.0000 (  3887 PWs)   bands (ev):

   -46.0494 -22.5021 -22.4385 -22.4385 -22.4385  -7.2987  -6.2790  -6.2790
    -4.5298  -4.5298  -4.5298   7.1997   7.1997   7.1997   8.8473   8.8473
     8.8473   9.7085   9.7085   9.7085

          k = 0.0000 0.0000 0.1000 (  3911 PWs)   bands (ev):

   -46.0493 -22.5193 -22.4382 -22.4382 -22.4260  -7.3011  -6.2850  -6.2750
    -4.5249  -4.5249  -4.4564   7.0641   7.1912   7.1912   8.7087   8.7087
     8.7524   9.3811   9.6377   9.6377

          k = 0.0000 0.0000 0.2000 (  3911 PWs)   bands (ev):

   -46.0490 -22.5523 -22.4373 -22.4373 -22.4049  -7.3354  -6.2644  -6.2492
    -4.5121  -4.5121  -4.2834   6.7012   7.1711   7.1711   8.3772   8.3772
     8.5217   8.6964   9.5156   9.5156

          k = 0.0000 0.0000 0.3000 (  3940 PWs)   bands (ev):

   -46.0486 -22.5852 -22.4363 -22.4363 -22.3868  -7.4171  -6.2512  -6.1283
    -4.4962  -4.4962  -4.0975   6.2309   7.1538   7.1538   8.0183   8.0183
     8.0596   8.2645   9.4132   9.4132

          k = 0.0000 0.0000 0.4000 (  3948 PWs)   bands (ev):

   -46.0483 -22.6090 -22.4355 -22.4355 -22.3747  -7.4992  -6.2405  -5.9891
    -4.4832  -4.4832  -3.9641   5.8319   7.1532   7.1532   7.6520   7.7488
     7.7488   8.0741   9.3467   9.3467

          k = 0.0000 0.0000-0.5000 (  3948 PWs)   bands (ev):

   -46.0482 -22.6176 -22.4351 -22.4351 -22.3704  -7.5324  -6.2364  -5.9285
    -4.4782  -4.4782  -3.9165   5.6758   7.1600   7.1600   7.5148   7.6449
     7.6449   8.0049   9.3237   9.3237

          k = 0.0000 0.1000 0.1000 (  3906 PWs)   bands (ev):

   -46.0492 -22.5286 -22.4454 -22.4379 -22.4138  -7.2959  -6.2948  -6.2712
    -4.5199  -4.4871  -4.4229   6.9631   7.1481   7.1831   8.4089   8.5896
     8.8533   9.2459   9.4446   9.5509

          k = 0.0000 0.1000 0.2000 (  3924 PWs)   bands (ev):

   -46.0489 -22.5527 -22.4483 -22.4370 -22.3982  -7.3102  -6.2870  -6.2449
    -4.5069  -4.4640  -4.2770   6.6420   7.0812   7.1641   7.9758   8.2916
     8.6389   8.8546   9.2996   9.4009

          k = 0.0000 0.1000 0.3000 (  3946 PWs)   bands (ev):

   -46.0485 -22.5810 -22.4463 -22.4360 -22.3858  -7.3724  -6.2507  -6.1602
    -4.4906  -4.4491  -4.1079   6.2047   7.0039   7.1481   7.5242   7.9543
     8.1878   8.6803   9.1894   9.2807

          k = 0.0000 0.1000 0.4000 (  3939 PWs)   bands (ev):

   -46.0482 -22.6027 -22.4435 -22.4351 -22.3779  -7.4438  -6.2296  -6.0393
    -4.4773  -4.4371  -3.9860   5.8219   6.9320   7.1495   7.1998   7.6941
     7.9315   8.5400   9.1149   9.2060

          k = 0.0000 0.1000-0.5000 (  3948 PWs)   bands (ev):

   -46.0481 -22.6108 -22.4424 -22.4348 -22.3751  -7.4738  -6.2223  -5.9847
    -4.4722  -4.4321  -3.9425   5.6695   6.8977   7.0921   7.1580   7.5918
     7.8504   8.4866   9.0886   9.1807

          k = 0.0000 0.2000 0.2000 (  3934 PWs)   bands (ev):

   -46.0486 -22.5574 -22.4633 -22.4362 -22.3904  -7.2656  -6.3323  -6.2083
    -4.4931  -4.3774  -4.2345   6.4382   6.8933   7.1475   7.4636   8.0647
     8.5302   8.7821   9.1877   9.2002

          k = 0.0000 0.2000 0.3000 (  3952 PWs)   bands (ev):

   -46.0482 -22.5704 -22.4677 -22.4352 -22.3874  -7.2600  -6.3120  -6.1619
    -4.4759  -4.3412  -4.1301   6.1088   6.6613   7.0183   7.1339   7.7849
     8.2408   8.7292   9.0143   9.2051

          k = 0.0000 0.2000 0.4000 (  3941 PWs)   bands (ev):

   -46.0479 -22.5852 -22.4639 -22.4343 -22.3880  -7.2913  -6.2390  -6.1275
    -4.4620  -4.3288  -4.0381   5.7890   6.3659   6.8501   7.1388   7.5532
     8.0763   8.7013   8.9107   9.1573

          k = 0.0000 0.2000-0.5000 (  3954 PWs)   bands (ev):

   -46.0478 -22.5915 -22.4612 -22.4340 -22.3889  -7.3094  -6.1974  -6.1185
    -4.4566  -4.3242  -4.0040   5.6522   6.2467   6.8149   7.1516   7.4564
     8.0259   8.6908   8.8767   9.1302

          k = 0.0000 0.3000 0.3000 (  3944 PWs)   bands (ev):

   -46.0479 -22.5607 -22.4854 -22.4342 -22.3948  -7.1416  -6.3726  -6.1377
    -4.4577  -4.2437  -4.1327   5.8998   6.4174   6.4471   7.1206   7.5699
     8.2197   8.5743   8.7784   9.4666

          k = 0.0000 0.3000 0.4000 (  3936 PWs)   bands (ev):

   -46.0476 -22.5603 -22.4877 -22.4333 -22.4052  -7.0817  -6.3387  -6.1546
    -4.4428  -4.2130  -4.0877   5.6886   5.9400   6.3438   7.1244   7.3818
     8.2171   8.5205   8.6326   9.5825

          k = 0.0000 0.3000-0.5000 (  3950 PWs)   bands (ev):

   -46.0475 -22.5627 -22.4844 -22.4330 -22.4108  -7.0711  -6.2649  -6.2083
    -4.4371  -4.2083  -4.0624   5.6210   5.7327   6.3249   7.1407   7.2955
     8.2316   8.4948   8.5846   9.6110

          k = 0.0000 0.4000 0.4000 (  3958 PWs)   bands (ev):

   -46.0473 -22.5368 -22.5033 -22.4325 -22.4259  -6.8862  -6.4014  -6.2166
    -4.4272  -4.1353  -4.1047   5.4848   5.7012   5.9842   7.1177   7.2384
     8.3320   8.4517   8.4814   9.8133

          k = 0.0000 0.4000-0.5000 (  3946 PWs)   bands (ev):

   -46.0472 -22.5301 -22.5030 -22.4378 -22.4322  -6.8066  -6.3726  -6.2986
    -4.4212  -4.1240  -4.0894   5.4050   5.5437   5.9233   7.1286   7.1700
     8.3905   8.3968   8.4586   9.8821

          k = 0.0000-0.5000-0.5000 (  3932 PWs)   bands (ev):

   -46.0471 -22.5101 -22.5101 -22.4556 -22.4319  -6.6303  -6.4117  -6.4117
    -4.4151  -4.0935  -4.0935   5.2924   5.4631   5.8162   7.1231   7.1231
     8.3240   8.4598   8.4598   9.9658

          k = 0.1000 0.1000 0.1000 (  3902 PWs)   bands (ev):

   -46.0491 -22.5345 -22.4450 -22.4450 -22.4052  -7.2845  -6.2866  -6.2866
    -4.4892  -4.4892  -4.3838   6.8595   7.1422   7.1422   8.3206   8.3206
     8.9511   9.0546   9.4034   9.4034

          k = 0.1000 0.1000 0.2000 (  3924 PWs)   bands (ev):

   -46.0488 -22.5525 -22.4504 -22.4442 -22.3934  -7.2822  -6.2804  -6.2649
    -4.4948  -4.4446  -4.2603   6.5713   7.0374   7.1279   7.9146   7.9944
     8.6637   8.9305   9.1875   9.3003

          k = 0.1000 0.1000 0.3000 (  3933 PWs)   bands (ev):

   -46.0484 -22.5768 -22.4484 -22.4431 -22.3853  -7.3270  -6.2374  -6.1941
    -4.5023  -4.4047  -4.1145   6.1748   6.9015   7.1151   7.4984   7.5586
     8.4503   8.7848   9.0064   9.1967

          k = 0.1000 0.1000 0.4000 (  3949 PWs)   bands (ev):

   -46.0481 -22.5967 -22.4442 -22.4423 -22.3808  -7.3882  -6.2147  -6.0781
    -4.5089  -4.3733  -4.0086   5.8121   6.7920   7.1211   7.1389   7.3092
     8.3732   8.6348   8.8731   9.1285

          k = 0.1000 0.1000-0.5000 (  3954 PWs)   bands (ev):

   -46.0480 -22.6043 -22.4422 -22.4419 -22.3795  -7.4151  -6.2059  -6.0258
    -4.5115  -4.3611  -3.9709   5.6639   6.7538   7.0141   7.1727   7.1734
     8.3565   8.5743   8.8217   9.1049

          k = 0.1000 0.2000 0.2000 (  3936 PWs)   bands (ev):

   -46.0485 -22.5552 -22.4630 -22.4453 -22.3881  -7.2293  -6.3146  -6.2304
    -4.4860  -4.3961  -4.2025   6.3659   6.8921   7.0768   7.4701   7.8132
     8.3341   8.9722   9.1190   9.1818

          k = 0.1000 0.2000 0.3000 (  3946 PWs)   bands (ev):

   -46.0481 -22.5662 -22.4676 -22.4440 -22.3876  -7.2122  -6.2913  -6.1800
    -4.4977  -4.3387  -4.1225   6.0734   6.6429   7.0330   7.0492   7.5012
     8.2168   8.8198   8.9923   9.2016

          k = 0.1000 0.2000 0.4000 (  3931 PWs)   bands (ev):

   -46.0478 -22.5799 -22.4636 -22.4422 -22.3904  -7.2353  -6.2172  -6.1403
    -4.5151  -4.2899  -4.0613   5.7806   6.3572   6.8345   7.0451   7.2426
     8.2785   8.6197   8.9297   9.1601

          k = 0.1000 0.2000-0.5000 (  3948 PWs)   bands (ev):

   -46.0477 -22.5858 -22.4609 -22.4412 -22.3923  -7.2508  -6.1747  -6.1291
    -4.5227  -4.2703  -4.0395   5.6488   6.2482   6.7862   7.0746   7.1196
     8.3834   8.4703   8.9082   9.1352

          k = 0.1000 0.3000 0.3000 (  3946 PWs)   bands (ev):

   -46.0478 -22.5564 -22.4851 -22.4427 -22.3955  -7.0897  -6.3455  -6.1395
    -4.4914  -4.2808  -4.1159   5.8848   6.4198   6.4808   6.9925   7.3602
     8.0510   8.7863   8.7898   9.4674

          k = 0.1000 0.3000 0.4000 (  3937 PWs)   bands (ev):

   -46.0475 -22.5560 -22.4873 -22.4412 -22.4065  -7.0252  -6.3121  -6.1400
    -4.4969  -4.2270  -4.1073   5.6964   5.9725   6.3498   6.9839   7.1725
     8.0901   8.6240   8.7637   9.5851

          k = 0.1000 0.3000-0.5000 (  3938 PWs)   bands (ev):

   -46.0474 -22.5585 -22.4840 -22.4402 -22.4127  -7.0126  -6.2495  -6.1766
    -4.5010  -4.2001  -4.1074   5.6211   5.7845   6.3274   7.0377   7.0423
     8.1390   8.5501   8.7500   9.6142

          k = 0.1000 0.4000 0.4000 (  3944 PWs)   bands (ev):

   -46.0472 -22.5338 -22.5029 -22.4403 -22.4260  -6.8284  -6.3680  -6.1875
    -4.4776  -4.1860  -4.1286   5.5382   5.7237   5.9863   6.9635   7.0713
     8.0446   8.6323   8.7006   9.8186

          k = 0.1000 0.4000-0.5000 (  3940 PWs)   bands (ev):

   -46.0471 -22.5279 -22.5026 -22.4394 -22.4377  -6.7475  -6.3420  -6.2601
    -4.4702  -4.1608  -4.1421   5.4866   5.5476   5.9259   6.9912   6.9934
     8.0383   8.6381   8.6870   9.8888

          k = 0.1000-0.5000-0.5000 (  3928 PWs)   bands (ev):

   -46.0469 -22.5096 -22.5096 -22.4537 -22.4390  -6.5655  -6.3762  -6.3762
    -4.4561  -4.1491  -4.1491   5.3846   5.4678   5.8180   6.9728   6.9728
     8.0066   8.6765   8.6765   9.9742

          k = 0.2000 0.2000 0.2000 (  3956 PWs)   bands (ev):

   -46.0482 -22.5519 -22.4621 -22.4621 -22.3870  -7.1486  -6.2665  -6.2665
    -4.4471  -4.4471  -4.1428   6.1897   6.8857   6.8857   7.4233   7.4233
     7.8305   9.0806   9.0806   9.2330

          k = 0.2000 0.2000 0.3000 (  3924 PWs)   bands (ev):

   -46.0478 -22.5553 -22.4698 -22.4609 -22.3910  -7.0900  -6.2555  -6.2027
    -4.5148  -4.3691  -4.1050   5.9774   6.5792   6.8569   7.0300   7.1270
     7.7090   9.0201   9.0516   9.2916

          k = 0.2000 0.2000 0.4000 (  3914 PWs)   bands (ev):

   -46.0475 -22.5650 -22.4649 -22.4600 -22.3982  -7.0816  -6.1957  -6.1467
    -4.5741  -4.2765  -4.1079   5.7560   6.2637   6.7586   6.7749   7.0057
     7.7693   8.9708   8.9991   9.2652

          k = 0.2000 0.2000-0.5000 (  3936 PWs)   bands (ev):

   -46.0474 -22.5700 -22.4603 -22.4597 -22.4024  -7.0868  -6.1616  -6.1240
    -4.5980  -4.2224  -4.1285   5.6397   6.1600   6.6785   6.7261   6.9860
     7.8022   8.9537   8.9702   9.2426

          k = 0.2000 0.3000 0.3000 (  3927 PWs)   bands (ev):

   -46.0475 -22.5447 -22.4841 -22.4629 -22.3997  -6.9534  -6.2695  -6.1482
    -4.5346  -4.3830  -4.1092   5.8479   6.4262   6.5686   6.7382   7.0099
     7.4032   9.0146   9.1132   9.4962

          k = 0.2000 0.3000 0.4000 (  3937 PWs)   bands (ev):

   -46.0472 -22.5442 -22.4863 -22.4608 -22.4116  -6.8709  -6.2434  -6.1038
    -4.5909  -4.3158  -4.1520   5.7086   6.0511   6.3713   6.6879   6.8605
     7.4128   9.0109   9.1046   9.6049

          k = 0.2000 0.3000-0.5000 (  3930 PWs)   bands (ev):

   -46.0471 -22.5469 -22.4830 -22.4589 -22.4184  -6.8501  -6.2104  -6.0966
    -4.6184  -4.2270  -4.2258   5.6206   5.9078   6.3325   6.6665   6.8089
     7.4355   9.0265   9.0764   9.6328

          k = 0.2000 0.4000 0.4000 (  3940 PWs)   bands (ev):

   -46.0469 -22.5255 -22.5018 -22.4593 -22.4280  -6.6716  -6.2730  -6.1117
    -4.5884  -4.3261  -4.2106   5.6233   5.8360   5.9921   6.6762   6.7733
     7.3183   9.0553   9.1298   9.8353

          k = 0.2000 0.4000-0.5000 (  3942 PWs)   bands (ev):

   -46.0468 -22.5221 -22.5016 -22.4580 -22.4375  -6.5865  -6.2559  -6.1540
    -4.5881  -4.2863  -4.2714   5.5557   5.6995   5.9330   6.6873   6.7250
     7.3048   9.0982   9.1128   9.9075

          k = 0.2000-0.5000-0.5000 (  3940 PWs)   bands (ev):

   -46.0467 -22.5086 -22.5086 -22.4576 -22.4487  -6.3907  -6.2745  -6.2745
    -4.5606  -4.3031  -4.3031   5.4770   5.6256   5.8226   6.6978   6.6978
     7.2710   9.1280   9.1280   9.9962

          k = 0.3000 0.3000 0.3000 (  3947 PWs)   bands (ev):

   -46.0471 -22.5311 -22.4829 -22.4829 -22.4089  -6.7870  -6.1629  -6.1629
    -4.5220  -4.5220  -4.1510   5.8020   6.4344   6.4344   6.6798   6.7190
     6.7190   9.2653   9.2653   9.6043

          k = 0.3000 0.3000 0.4000 (  3939 PWs)   bands (ev):

   -46.0468 -22.5279 -22.4868 -22.4819 -22.4207  -6.6615  -6.1686  -6.0617
    -4.6495  -4.4500  -4.2345   5.7114   6.0902   6.3701   6.4416   6.5364
     6.8070   9.3015   9.4188   9.6985

          k = 0.3000 0.3000-0.5000 (  3918 PWs)   bands (ev):

   -46.0467 -22.5307 -22.4822 -22.4815 -22.4273  -6.6188  -6.1656  -6.0180
    -4.7033  -4.3707  -4.3155   5.6114   5.9975   6.2874   6.4449   6.4743
     6.8475   9.3099   9.4667   9.7256

          k = 0.3000 0.4000 0.4000 (  3948 PWs)   bands (ev):

   -46.0465 -22.5145 -22.5005 -22.4822 -22.4316  -6.4606  -6.1342  -6.0274
    -4.6840  -4.5200  -4.3472   5.6521   5.9999   6.0347   6.3853   6.5187
     6.5896   9.4744   9.5307   9.8658

          k = 0.3000 0.4000-0.5000 (  3942 PWs)   bands (ev):

   -46.0464 -22.5147 -22.5003 -22.4808 -22.4374  -6.3655  -6.1344  -6.0175
    -4.7139  -4.4799  -4.4391   5.5528   5.9414   5.9596   6.4184   6.4346
     6.5995   9.5155   9.5724   9.9349

          k = 0.3000-0.5000-0.5000 (  3960 PWs)   bands (ev):

   -46.0463 -22.5073 -22.5073 -22.4805 -22.4425  -6.1636  -6.1241  -6.1241
    -4.6852  -4.5171  -4.5171   5.4729   5.8283   5.9237   6.4605   6.4605
     6.4933   9.5904   9.5904  10.0238

          k = 0.4000 0.4000 0.4000 (  3948 PWs)   bands (ev):

   -46.0462 -22.5057 -22.4995 -22.4995 -22.4355  -6.2537  -5.9933  -5.9933
    -4.7050  -4.7050  -4.5033   5.5912   6.0073   6.0073   6.1645   6.3565
     6.3565   9.7680   9.7680   9.9263

          k = 0.4000 0.4000-0.5000 (  3926 PWs)   bands (ev):

   -46.0461 -22.5086 -22.4993 -22.4991 -22.4375  -6.1379  -6.0181  -5.9279
    -4.7871  -4.6535  -4.6181   5.4926   5.9194   6.0106   6.1463   6.3010
     6.3701   9.8190   9.8722   9.9802

          k = 0.4000-0.5000-0.5000 (  3932 PWs)   bands (ev):

   -46.0460 -22.5062 -22.5062 -22.4988 -22.4375  -5.9694  -5.9675  -5.9675
    -4.7824  -4.7245  -4.7245   5.4142   5.8329   5.9764   6.1655   6.3094
     6.3094   9.9300   9.9300  10.0464

          k =-0.5000-0.5000-0.5000 (  3912 PWs)   bands (ev):

   -46.0459 -22.5058 -22.5058 -22.5058 -22.4356  -5.8925  -5.8925  -5.8925
    -4.8188  -4.8188  -4.8188   5.3453   5.8347   5.8347   6.2581   6.2581
     6.2581  10.0551  10.0551  10.0551

     highest occupied level (ev):    10.0551

!    total energy              =    -286.64618352 Ry
     estimated scf accuracy    <          2.5E-09 Ry

     The total energy is the sum of the following terms:
     one-electron contribution =     -75.84497401 Ry
     hartree contribution      =      60.25153968 Ry
     xc contribution           =     -57.87678863 Ry
     ewald contribution        =    -213.17596056 Ry

     convergence has been achieved in  13 iterations

     negative rho (up, down):  6.734E-02 0.000E+00

     Forces acting on atoms (cartesian axes, Ry/au):

     atom    1 type  1   force =     0.00000000    0.00000000   -0.00000000
     atom    2 type  2   force =     0.00000000    0.00000000    0.00000000
     atom    3 type  3   force =     0.00000000    0.00000000    0.00000000
     atom    4 type  3   force =     0.00000000   -0.00000000   -0.00000000
     atom    5 type  3   force =     0.00000000   -0.00000000    0.00000000

     Total force =     0.000000     Total SCF correction =     0.000000


     Computing stress (Cartesian axis) and pressure


     negative rho (up, down):  6.734E-02 0.000E+00
          total   stress  (Ry/bohr**3)                   (kbar)     P=       -0.19
  -0.00000127   0.00000000   0.00000000           -0.19        0.00        0.00
   0.00000000  -0.00000127   0.00000000            0.00       -0.19        0.00
   0.00000000   0.00000000  -0.00000127            0.00        0.00       -0.19


     Writing all to output data dir ./out/SrTiO3.save/ :
     XML data file, charge density, pseudopotentials, collected wavefunctions
 
     init_run     :      0.65s CPU      5.63s WALL (       2 calls)
     electrons    :      5.30s CPU     15.09s WALL (       2 calls)
     forces       :      0.14s CPU      0.16s WALL (       2 calls)
     stress       :      0.27s CPU      0.28s WALL (       2 calls)

     Called by init_run:
     wfcinit      :      0.07s CPU      3.26s WALL (       2 calls)
     potinit      :      0.09s CPU      0.77s WALL (       2 calls)
     hinit0       :      0.39s CPU      0.94s WALL (       2 calls)

     Called by electrons:
     c_bands      :      3.33s CPU      4.35s WALL (      26 calls)
     sum_band     :      0.74s CPU      1.94s WALL (      26 calls)
     v_of_rho     :      0.84s CPU      1.60s WALL (      28 calls)
     newd         :      0.30s CPU      0.89s WALL (      28 calls)
     mix_rho      :      0.08s CPU      0.13s WALL (      26 calls)

     Called by c_bands:
     init_us_2    :      0.09s CPU      0.10s WALL (     174 calls)
     cegterg      :      1.58s CPU      2.57s WALL (      78 calls)

     Called by *egterg:
     cdiaghg      :      0.15s CPU      2.99s WALL (     366 calls)
     h_psi        :      1.15s CPU      2.41s WALL (     372 calls)
     s_psi        :      0.07s CPU      0.08s WALL (     372 calls)
     g_psi        :      0.01s CPU      0.01s WALL (     288 calls)

     Called by h_psi:
     h_psi:calbec :      0.09s CPU      1.09s WALL (     372 calls)
     vloc_psi     :      0.96s CPU      1.21s WALL (     372 calls)
                                        0.00s GPU  (     372 calls)
     add_vuspsi   :      0.08s CPU      0.09s WALL (     372 calls)

     General routines
     calbec       :      0.15s CPU      1.16s WALL (     552 calls)
     fft          :      0.41s CPU      1.34s WALL (     410 calls)
     ffts         :      0.01s CPU      0.04s WALL (      54 calls)
     fftw         :      0.99s CPU      1.24s WALL (   11408 calls)
     interpolate  :      0.04s CPU      0.07s WALL (      28 calls)
 
     Parallel routines
 
     PWSCF        :      6.56s CPU     25.65s WALL

 
   This run was terminated on:  17:22:41  10Jul2025            

=------------------------------------------------------------------------------=
   JOB DONE.
=------------------------------------------------------------------------------=
