
     Program PWSCF v.7.4.1 starts on 10Jul2025 at 18:31: 6 

     This program is part of the open-source Quantum ESPRESSO suite
     for quantum simulation of materials; please cite
         "P. Giannozzi et al., J. Phys.:Condens. Matter 21 395502 (2009);
         "P. Giannozzi et al., J. Phys.:Condens. Matter 29 465901 (2017);
         "P. Giannozzi et al., J. Chem. Phys. 152 154105 (2020);
          URL http://www.quantum-espresso.org", 
     in publications or presentations arising from this work. More details at
     http://www.quantum-espresso.org/quote

     Parallel version (MPI & OpenMP), running on      80 processor cores
     Number of MPI processes:                80
     Threads/MPI process:                     1

     MPI processes distributed on     1 nodes
     3057862 MiB available memory on the printing compute node when the environment starts
 
     Waiting for input...
     Reading input from standard input

     Current dimensions of program PWSCF are:
     Max number of different atomic species (ntypx) = 10
     Max number of k-points (npk) =  40000
     Max angular momentum in pseudopotentials (lmaxx) =  4
     Found identity + ( -0.5000 -0.5000 -0.5000) symmetry
     This is a supercell, fractional translations are disabled
     Message from routine setup:
     using ibrav=0 with symmetry is DISCOURAGED, use correct ibrav instead
 
     K-points division:     npool     =      20
     R & G space division:  proc/nbgrp/npool/nimage =       4
     Subspace diagonalization in iterative solution of the eigenvalue problem:
     a serial algorithm will be used

 
     Parallelization info
     --------------------
     sticks:   dense  smooth     PW     G-vecs:    dense   smooth      PW
     Min         406     165     53                12389     3139     551
     Max         409     167     54                12390     3140     552
     Sum        1633     665    213                49557    12557    2205
 
     Using Slab Decomposition
 


     bravais-lattice index     =            0
     lattice parameter (alat)  =       5.4160  a.u.
     unit-cell volume          =     158.8639 (a.u.)^3
     number of atoms/cell      =            2
     number of atomic types    =            1
     number of electrons       =        32.00
     number of Kohn-Sham states=           20
     kinetic-energy cutoff     =      70.0000  Ry
     charge density cutoff     =     700.0000  Ry
     scf convergence threshold =      1.0E-08
     mixing beta               =       0.7000
     number of iterations used =            8  plain     mixing
     energy convergence thresh.=      1.0E-04
     force convergence thresh. =      1.0E-03
     press convergence thresh. =      5.0E-01
     Exchange-correlation= SLA  PW   PSX  PSC
                           (   1   4  10   8   0   0   0)
     nstep                     =           50


     celldm(1)=   5.415955  celldm(2)=   0.000000  celldm(3)=   0.000000
     celldm(4)=   0.000000  celldm(5)=   0.000000  celldm(6)=   0.000000

     crystal axes: (cart. coord. in units of alat)
               a(1) = (   1.000000   0.000000   0.000000 )  
               a(2) = (   0.000000   1.000000   0.000000 )  
               a(3) = (   0.000000   0.000000   1.000000 )  

     reciprocal axes: (cart. coord. in units 2 pi/alat)
               b(1) = (  1.000000  0.000000  0.000000 )  
               b(2) = (  0.000000  1.000000  0.000000 )  
               b(3) = (  0.000000  0.000000  1.000000 )  


     PseudoPot. # 1 for Fe read from file:
     /home/m0049/m004905/PSPOT/fe_pbesol_v1.5.uspp.F.UPF
     MD5 check sum: a3f38e9a1a818e424be8f97771a26c64
     Pseudo is Ultrasoft + core correction, Zval = 16.0
     Generated by new atomic code, or converted to UPF format
     Using radial grid of  861 points,  6 beta functions with: 
                l(1) =   0
                l(2) =   0
                l(3) =   1
                l(4) =   1
                l(5) =   2
                l(6) =   2
     Q(r) pseudized with  8 coefficients,  rinner =    1.000   1.000   1.000
                                                       1.000   1.000

     atomic species   valence    mass     pseudopotential
     Fe               16.00    55.84500     Fe( 1.00)

     Starting magnetic structure 
     atomic species   magnetization
     Fe              0.125

     48 Sym. Ops., with inversion, found



   Cartesian axes

     site n.     atom                  positions (alat units)
         1        Fe     tau(   1) = (   0.0000000   0.0000000   0.0000000  )
         2        Fe     tau(   2) = (   0.5000000   0.5000000   0.5000000  )

     number of k points=    84  Methfessel-Paxton smearing, width (Ry)=  0.0100
                       cart. coord. in units 2pi/alat
        k(    1) = (   0.0000000   0.0000000   0.0000000), wk =   0.0005787
        k(    2) = (   0.0000000   0.0000000   0.0833333), wk =   0.0034722
        k(    3) = (   0.0000000   0.0000000   0.1666667), wk =   0.0034722
        k(    4) = (   0.0000000   0.0000000   0.2500000), wk =   0.0034722
        k(    5) = (   0.0000000   0.0000000   0.3333333), wk =   0.0034722
        k(    6) = (   0.0000000   0.0000000   0.4166667), wk =   0.0034722
        k(    7) = (   0.0000000   0.0000000  -0.5000000), wk =   0.0017361
        k(    8) = (   0.0000000   0.0833333   0.0833333), wk =   0.0069444
        k(    9) = (   0.0000000   0.0833333   0.1666667), wk =   0.0138889
        k(   10) = (   0.0000000   0.0833333   0.2500000), wk =   0.0138889
        k(   11) = (   0.0000000   0.0833333   0.3333333), wk =   0.0138889
        k(   12) = (   0.0000000   0.0833333   0.4166667), wk =   0.0138889
        k(   13) = (   0.0000000   0.0833333  -0.5000000), wk =   0.0069444
        k(   14) = (   0.0000000   0.1666667   0.1666667), wk =   0.0069444
        k(   15) = (   0.0000000   0.1666667   0.2500000), wk =   0.0138889
        k(   16) = (   0.0000000   0.1666667   0.3333333), wk =   0.0138889
        k(   17) = (   0.0000000   0.1666667   0.4166667), wk =   0.0138889
        k(   18) = (   0.0000000   0.1666667  -0.5000000), wk =   0.0069444
        k(   19) = (   0.0000000   0.2500000   0.2500000), wk =   0.0069444
        k(   20) = (   0.0000000   0.2500000   0.3333333), wk =   0.0138889
        k(   21) = (   0.0000000   0.2500000   0.4166667), wk =   0.0138889
        k(   22) = (   0.0000000   0.2500000  -0.5000000), wk =   0.0069444
        k(   23) = (   0.0000000   0.3333333   0.3333333), wk =   0.0069444
        k(   24) = (   0.0000000   0.3333333   0.4166667), wk =   0.0138889
        k(   25) = (   0.0000000   0.3333333  -0.5000000), wk =   0.0069444
        k(   26) = (   0.0000000   0.4166667   0.4166667), wk =   0.0069444
        k(   27) = (   0.0000000   0.4166667  -0.5000000), wk =   0.0069444
        k(   28) = (   0.0000000  -0.5000000  -0.5000000), wk =   0.0017361
        k(   29) = (   0.0833333   0.0833333   0.0833333), wk =   0.0046296
        k(   30) = (   0.0833333   0.0833333   0.1666667), wk =   0.0138889
        k(   31) = (   0.0833333   0.0833333   0.2500000), wk =   0.0138889
        k(   32) = (   0.0833333   0.0833333   0.3333333), wk =   0.0138889
        k(   33) = (   0.0833333   0.0833333   0.4166667), wk =   0.0138889
        k(   34) = (   0.0833333   0.0833333  -0.5000000), wk =   0.0069444
        k(   35) = (   0.0833333   0.1666667   0.1666667), wk =   0.0138889
        k(   36) = (   0.0833333   0.1666667   0.2500000), wk =   0.0277778
        k(   37) = (   0.0833333   0.1666667   0.3333333), wk =   0.0277778
        k(   38) = (   0.0833333   0.1666667   0.4166667), wk =   0.0277778
        k(   39) = (   0.0833333   0.1666667  -0.5000000), wk =   0.0138889
        k(   40) = (   0.0833333   0.2500000   0.2500000), wk =   0.0138889
        k(   41) = (   0.0833333   0.2500000   0.3333333), wk =   0.0277778
        k(   42) = (   0.0833333   0.2500000   0.4166667), wk =   0.0277778
        k(   43) = (   0.0833333   0.2500000  -0.5000000), wk =   0.0138889
        k(   44) = (   0.0833333   0.3333333   0.3333333), wk =   0.0138889
        k(   45) = (   0.0833333   0.3333333   0.4166667), wk =   0.0277778
        k(   46) = (   0.0833333   0.3333333  -0.5000000), wk =   0.0138889
        k(   47) = (   0.0833333   0.4166667   0.4166667), wk =   0.0138889
        k(   48) = (   0.0833333   0.4166667  -0.5000000), wk =   0.0138889
        k(   49) = (   0.0833333  -0.5000000  -0.5000000), wk =   0.0034722
        k(   50) = (   0.1666667   0.1666667   0.1666667), wk =   0.0046296
        k(   51) = (   0.1666667   0.1666667   0.2500000), wk =   0.0138889
        k(   52) = (   0.1666667   0.1666667   0.3333333), wk =   0.0138889
        k(   53) = (   0.1666667   0.1666667   0.4166667), wk =   0.0138889
        k(   54) = (   0.1666667   0.1666667  -0.5000000), wk =   0.0069444
        k(   55) = (   0.1666667   0.2500000   0.2500000), wk =   0.0138889
        k(   56) = (   0.1666667   0.2500000   0.3333333), wk =   0.0277778
        k(   57) = (   0.1666667   0.2500000   0.4166667), wk =   0.0277778
        k(   58) = (   0.1666667   0.2500000  -0.5000000), wk =   0.0138889
        k(   59) = (   0.1666667   0.3333333   0.3333333), wk =   0.0138889
        k(   60) = (   0.1666667   0.3333333   0.4166667), wk =   0.0277778
        k(   61) = (   0.1666667   0.3333333  -0.5000000), wk =   0.0138889
        k(   62) = (   0.1666667   0.4166667   0.4166667), wk =   0.0138889
        k(   63) = (   0.1666667   0.4166667  -0.5000000), wk =   0.0138889
        k(   64) = (   0.1666667  -0.5000000  -0.5000000), wk =   0.0034722
        k(   65) = (   0.2500000   0.2500000   0.2500000), wk =   0.0046296
        k(   66) = (   0.2500000   0.2500000   0.3333333), wk =   0.0138889
        k(   67) = (   0.2500000   0.2500000   0.4166667), wk =   0.0138889
        k(   68) = (   0.2500000   0.2500000  -0.5000000), wk =   0.0069444
        k(   69) = (   0.2500000   0.3333333   0.3333333), wk =   0.0138889
        k(   70) = (   0.2500000   0.3333333   0.4166667), wk =   0.0277778
        k(   71) = (   0.2500000   0.3333333  -0.5000000), wk =   0.0138889
        k(   72) = (   0.2500000   0.4166667   0.4166667), wk =   0.0138889
        k(   73) = (   0.2500000   0.4166667  -0.5000000), wk =   0.0138889
        k(   74) = (   0.2500000  -0.5000000  -0.5000000), wk =   0.0034722
        k(   75) = (   0.3333333   0.3333333   0.3333333), wk =   0.0046296
        k(   76) = (   0.3333333   0.3333333   0.4166667), wk =   0.0138889
        k(   77) = (   0.3333333   0.3333333  -0.5000000), wk =   0.0069444
        k(   78) = (   0.3333333   0.4166667   0.4166667), wk =   0.0138889
        k(   79) = (   0.3333333   0.4166667  -0.5000000), wk =   0.0138889
        k(   80) = (   0.3333333  -0.5000000  -0.5000000), wk =   0.0034722
        k(   81) = (   0.4166667   0.4166667   0.4166667), wk =   0.0046296
        k(   82) = (   0.4166667   0.4166667  -0.5000000), wk =   0.0069444
        k(   83) = (   0.4166667  -0.5000000  -0.5000000), wk =   0.0034722
        k(   84) = (  -0.5000000  -0.5000000  -0.5000000), wk =   0.0005787

     Dense  grid:    49557 G-vectors     FFT dimensions: (  45,  45,  45)

     Smooth grid:    12557 G-vectors     FFT dimensions: (  30,  30,  30)

     Estimated max dynamical RAM per process >      19.26 MB

     Estimated total dynamical RAM >       1.06 GB

     Check: negative core charge=   -0.000053
     Generating pointlists ...
     new r_m :   0.3572 (alat units)  1.9348 (a.u.) for type    1

     Initial potential from superposition of free atoms

     starting charge      30.0000, renormalised to      32.0000
     Starting wfcs are   26 randomized atomic wfcs

     total cpu time spent up to now is        4.2 secs

     Self-consistent Calculation

     iteration #  1     ecut=    70.00 Ry     beta= 0.70
     Davidson diagonalization with overlap
     ethr =  1.00E-02,  avg # of iterations =  2.3

     total cpu time spent up to now is        4.5 secs

     total energy              =    -497.85167255 Ry
     estimated scf accuracy    <       4.60714766 Ry

     total magnetization       =     3.31 Bohr mag/cell
     absolute magnetization    =     3.31 Bohr mag/cell

     iteration #  2     ecut=    70.00 Ry     beta= 0.70
     Davidson diagonalization with overlap
     ethr =  1.00E-02,  avg # of iterations =  3.1

     total cpu time spent up to now is        5.1 secs

     total energy              =    -498.16528453 Ry
     estimated scf accuracy    <      12.88301285 Ry

     total magnetization       =     4.01 Bohr mag/cell
     absolute magnetization    =     4.02 Bohr mag/cell

     iteration #  3     ecut=    70.00 Ry     beta= 0.70
     Davidson diagonalization with overlap
     ethr =  1.00E-02,  avg # of iterations =  2.6

     total cpu time spent up to now is        5.3 secs

     total energy              =    -500.37696651 Ry
     estimated scf accuracy    <       0.01672577 Ry

     total magnetization       =     4.09 Bohr mag/cell
     absolute magnetization    =     4.19 Bohr mag/cell

     iteration #  4     ecut=    70.00 Ry     beta= 0.70
     Davidson diagonalization with overlap
     ethr =  5.23E-05,  avg # of iterations =  3.0

     total cpu time spent up to now is        5.5 secs

     total energy              =    -500.38165300 Ry
     estimated scf accuracy    <       0.05820622 Ry

     total magnetization       =     4.14 Bohr mag/cell
     absolute magnetization    =     4.25 Bohr mag/cell

     iteration #  5     ecut=    70.00 Ry     beta= 0.70
     Davidson diagonalization with overlap
     ethr =  5.23E-05,  avg # of iterations =  1.1

     total cpu time spent up to now is        5.6 secs

     total energy              =    -500.37908580 Ry
     estimated scf accuracy    <       0.02208349 Ry

     total magnetization       =     4.17 Bohr mag/cell
     absolute magnetization    =     4.28 Bohr mag/cell

     iteration #  6     ecut=    70.00 Ry     beta= 0.70
     Davidson diagonalization with overlap
     ethr =  5.23E-05,  avg # of iterations =  3.1

     total cpu time spent up to now is        5.8 secs

     total energy              =    -500.39026252 Ry
     estimated scf accuracy    <       0.05276249 Ry

     total magnetization       =     4.56 Bohr mag/cell
     absolute magnetization    =     4.71 Bohr mag/cell

     iteration #  7     ecut=    70.00 Ry     beta= 0.70
     Davidson diagonalization with overlap
     ethr =  5.23E-05,  avg # of iterations =  1.7

     total cpu time spent up to now is        5.9 secs

     total energy              =    -500.38919490 Ry
     estimated scf accuracy    <       0.01742393 Ry

     total magnetization       =     4.57 Bohr mag/cell
     absolute magnetization    =     4.75 Bohr mag/cell

     iteration #  8     ecut=    70.00 Ry     beta= 0.70
     Davidson diagonalization with overlap
     ethr =  5.23E-05,  avg # of iterations =  1.5

     total cpu time spent up to now is        6.1 secs

     total energy              =    -500.38827837 Ry
     estimated scf accuracy    <       0.00398062 Ry

     total magnetization       =     4.58 Bohr mag/cell
     absolute magnetization    =     4.79 Bohr mag/cell

     iteration #  9     ecut=    70.00 Ry     beta= 0.70
     Davidson diagonalization with overlap
     ethr =  1.24E-05,  avg # of iterations =  2.9

     total cpu time spent up to now is        6.2 secs

     total energy              =    -500.38982142 Ry
     estimated scf accuracy    <       0.00099487 Ry

     total magnetization       =     4.54 Bohr mag/cell
     absolute magnetization    =     4.78 Bohr mag/cell

     iteration # 10     ecut=    70.00 Ry     beta= 0.70
     Davidson diagonalization with overlap
     ethr =  3.11E-06,  avg # of iterations =  1.2

     total cpu time spent up to now is        6.3 secs

     total energy              =    -500.38936005 Ry
     estimated scf accuracy    <       0.00135233 Ry

     total magnetization       =     4.55 Bohr mag/cell
     absolute magnetization    =     4.79 Bohr mag/cell

     iteration # 11     ecut=    70.00 Ry     beta= 0.70
     Davidson diagonalization with overlap
     ethr =  3.11E-06,  avg # of iterations =  2.2

     total cpu time spent up to now is        6.5 secs

     total energy              =    -500.38957401 Ry
     estimated scf accuracy    <       0.00000292 Ry

     total magnetization       =     4.57 Bohr mag/cell
     absolute magnetization    =     4.80 Bohr mag/cell

     iteration # 12     ecut=    70.00 Ry     beta= 0.70
     Davidson diagonalization with overlap
     ethr =  9.12E-09,  avg # of iterations =  3.6

     total cpu time spent up to now is        6.7 secs

     total energy              =    -500.38957705 Ry
     estimated scf accuracy    <       0.00000070 Ry

     total magnetization       =     4.57 Bohr mag/cell
     absolute magnetization    =     4.80 Bohr mag/cell

     iteration # 13     ecut=    70.00 Ry     beta= 0.70
     Davidson diagonalization with overlap
     ethr =  2.18E-09,  avg # of iterations =  1.8

     total cpu time spent up to now is        6.8 secs

     total energy              =    -500.38957719 Ry
     estimated scf accuracy    <       0.00000029 Ry

     total magnetization       =     4.57 Bohr mag/cell
     absolute magnetization    =     4.80 Bohr mag/cell

     iteration # 14     ecut=    70.00 Ry     beta= 0.70
     Davidson diagonalization with overlap
     ethr =  9.07E-10,  avg # of iterations =  2.4

     total cpu time spent up to now is        7.0 secs

     total energy              =    -500.38957727 Ry
     estimated scf accuracy    <       0.00000006 Ry

     total magnetization       =     4.57 Bohr mag/cell
     absolute magnetization    =     4.80 Bohr mag/cell

     iteration # 15     ecut=    70.00 Ry     beta= 0.70
     Davidson diagonalization with overlap
     ethr =  1.78E-10,  avg # of iterations =  1.5

     total cpu time spent up to now is        7.1 secs

     total energy              =    -500.38957727 Ry
     estimated scf accuracy    <       0.00000006 Ry

     total magnetization       =     4.57 Bohr mag/cell
     absolute magnetization    =     4.80 Bohr mag/cell

     iteration # 16     ecut=    70.00 Ry     beta= 0.70
     Davidson diagonalization with overlap
     ethr =  1.78E-10,  avg # of iterations =  1.5

     total cpu time spent up to now is        7.3 secs

     total energy              =    -500.38957727 Ry
     estimated scf accuracy    <       0.00000003 Ry

     total magnetization       =     4.57 Bohr mag/cell
     absolute magnetization    =     4.80 Bohr mag/cell

     iteration # 17     ecut=    70.00 Ry     beta= 0.70
     Davidson diagonalization with overlap
     ethr =  8.72E-11,  avg # of iterations =  1.2
 
     Magnetic moment per site  (integrated on atomic sphere of radius R)
     atom   1 (R=0.357)  charge= 14.4156  magn=  2.3326
     atom   2 (R=0.357)  charge= 14.4159  magn=  2.3326

     total cpu time spent up to now is        7.4 secs

     End of self-consistent calculation

     Number of k-points >= 100: set verbosity='high' to print the bands.

     the Fermi energy is    17.2272 ev

!    total energy              =    -500.38957727 Ry
     estimated scf accuracy    <          5.4E-09 Ry
     smearing contrib. (-TS)   =      -0.00014367 Ry
     internal energy E=F+TS    =    -500.38943360 Ry

     The total energy is F=E-TS. E is the sum of the following terms:
     one-electron contribution =    -233.28655594 Ry
     hartree contribution      =     134.74007291 Ry
     xc contribution           =     -57.80621080 Ry
     ewald contribution        =    -344.03673978 Ry

     total magnetization       =     4.57 Bohr mag/cell
     absolute magnetization    =     4.80 Bohr mag/cell

     convergence has been achieved in  17 iterations

     Forces acting on atoms (cartesian axes, Ry/au):

     atom    1 type  1   force =     0.00000000    0.00000000    0.00000000
     atom    2 type  1   force =     0.00000000    0.00000000    0.00000000

     Total force =     0.000000     Total SCF correction =     0.000000


     Computing stress (Cartesian axis) and pressure

          total   stress  (Ry/bohr**3)                   (kbar)     P=     -143.34
  -0.00097441   0.00000000   0.00000000         -143.34        0.00        0.00
   0.00000000  -0.00097441   0.00000000            0.00     -143.34        0.00
   0.00000000   0.00000000  -0.00097441            0.00        0.00     -143.34


     BFGS Geometry Optimization
     Energy error            =      1.2E-02 Ry
     Gradient error          =      2.6E-31 Ry/Bohr
     Cell gradient error     =      1.4E+02 kbar

     number of scf cycles    =   1
     number of bfgs steps    =   0

     enthalpy           new  =    -500.3895772678 Ry

     new trust radius        =       0.0614078000 bohr
     new conv_thr            =       0.0000000100 Ry

     new unit-cell volume =    147.53453 a.u.^3 (    21.86236 Ang^3 )
     density =      8.48333 g/cm^3

CELL_PARAMETERS (angstrom)
   2.796183649   0.000000000   0.000000000
   0.000000000   2.796183649   0.000000000
   0.000000000   0.000000000   2.796183649

ATOMIC_POSITIONS (crystal)
Fe               0.0000000000        0.0000000000        0.0000000000
Fe               0.5000000000        0.5000000000        0.5000000000



     Writing config-only to output data dir ./out/Fe_bcc_fm.save/ :
     XML data file
     NEW-OLD atomic charge density approx. for the potential
     New effective cutoffs (rho, wfc):  735.25   73.53

     Check: negative core charge=   -0.000040
     Generating pointlists ...
     new r_m :   0.3485 (alat units)  1.8876 (a.u.) for type    1

     total cpu time spent up to now is        7.6 secs

     Self-consistent Calculation

     iteration #  1     ecut=    70.00 Ry     beta= 0.70
     Davidson diagonalization with overlap
     ethr =  1.00E-06,  avg # of iterations =  4.4

     total cpu time spent up to now is        7.8 secs

     total energy              =    -500.39118729 Ry
     estimated scf accuracy    <       0.00892770 Ry

     total magnetization       =     4.38 Bohr mag/cell
     absolute magnetization    =     4.60 Bohr mag/cell

     iteration #  2     ecut=    70.00 Ry     beta= 0.70
     Davidson diagonalization with overlap
     ethr =  2.79E-05,  avg # of iterations =  3.1

     total cpu time spent up to now is        8.0 secs

     total energy              =    -500.39120186 Ry
     estimated scf accuracy    <       0.02699342 Ry

     total magnetization       =     4.49 Bohr mag/cell
     absolute magnetization    =     4.68 Bohr mag/cell

     iteration #  3     ecut=    70.00 Ry     beta= 0.70
     Davidson diagonalization with overlap
     ethr =  2.79E-05,  avg # of iterations =  2.8

     total cpu time spent up to now is        8.1 secs

     total energy              =    -500.39593331 Ry
     estimated scf accuracy    <       0.00013910 Ry

     total magnetization       =     4.38 Bohr mag/cell
     absolute magnetization    =     4.59 Bohr mag/cell

     iteration #  4     ecut=    70.00 Ry     beta= 0.70
     Davidson diagonalization with overlap
     ethr =  4.35E-07,  avg # of iterations =  3.1

     total cpu time spent up to now is        8.3 secs

     total energy              =    -500.39573057 Ry
     estimated scf accuracy    <       0.00580946 Ry

     total magnetization       =     4.35 Bohr mag/cell
     absolute magnetization    =     4.55 Bohr mag/cell

     iteration #  5     ecut=    70.00 Ry     beta= 0.70
     Davidson diagonalization with overlap
     ethr =  4.35E-07,  avg # of iterations =  2.8

     total cpu time spent up to now is        8.5 secs

     total energy              =    -500.39598999 Ry
     estimated scf accuracy    <       0.00008129 Ry

     total magnetization       =     4.34 Bohr mag/cell
     absolute magnetization    =     4.54 Bohr mag/cell

     iteration #  6     ecut=    70.00 Ry     beta= 0.70
     Davidson diagonalization with overlap
     ethr =  2.54E-07,  avg # of iterations =  2.5

     total cpu time spent up to now is        8.6 secs

     total energy              =    -500.39601492 Ry
     estimated scf accuracy    <       0.00001609 Ry

     total magnetization       =     4.33 Bohr mag/cell
     absolute magnetization    =     4.53 Bohr mag/cell

     iteration #  7     ecut=    70.00 Ry     beta= 0.70
     Davidson diagonalization with overlap
     ethr =  5.03E-08,  avg # of iterations =  1.9

     total cpu time spent up to now is        8.8 secs

     total energy              =    -500.39601625 Ry
     estimated scf accuracy    <       0.00000110 Ry

     total magnetization       =     4.33 Bohr mag/cell
     absolute magnetization    =     4.52 Bohr mag/cell

     iteration #  8     ecut=    70.00 Ry     beta= 0.70
     Davidson diagonalization with overlap
     ethr =  3.44E-09,  avg # of iterations =  2.4

     total cpu time spent up to now is        8.9 secs

     total energy              =    -500.39601658 Ry
     estimated scf accuracy    <       0.00000006 Ry

     total magnetization       =     4.32 Bohr mag/cell
     absolute magnetization    =     4.52 Bohr mag/cell

     iteration #  9     ecut=    70.00 Ry     beta= 0.70
     Davidson diagonalization with overlap
     ethr =  1.88E-10,  avg # of iterations =  1.2

     total cpu time spent up to now is        9.0 secs

     total energy              =    -500.39601658 Ry
     estimated scf accuracy    <       0.00000002 Ry

     total magnetization       =     4.32 Bohr mag/cell
     absolute magnetization    =     4.52 Bohr mag/cell

     iteration # 10     ecut=    70.00 Ry     beta= 0.70
     Davidson diagonalization with overlap
     ethr =  5.97E-11,  avg # of iterations =  2.0
 
     Magnetic moment per site  (integrated on atomic sphere of radius R)
     atom   1 (R=0.349)  charge= 14.3539  magn=  2.1983
     atom   2 (R=0.349)  charge= 14.3542  magn=  2.1983

     total cpu time spent up to now is        9.2 secs

     End of self-consistent calculation

     Number of k-points >= 100: set verbosity='high' to print the bands.

     the Fermi energy is    18.9474 ev

!    total energy              =    -500.39601658 Ry
     estimated scf accuracy    <          1.2E-09 Ry
     smearing contrib. (-TS)   =      -0.00011481 Ry
     internal energy E=F+TS    =    -500.39590177 Ry

     The total energy is F=E-TS. E is the sum of the following terms:
     one-electron contribution =    -219.59630650 Ry
     hartree contribution      =     129.71879886 Ry
     xc contribution           =     -57.89159271 Ry
     ewald contribution        =    -352.62680143 Ry

     total magnetization       =     4.32 Bohr mag/cell
     absolute magnetization    =     4.52 Bohr mag/cell

     convergence has been achieved in  10 iterations

     Forces acting on atoms (cartesian axes, Ry/au):

     atom    1 type  1   force =     0.00000000   -0.00000000    0.00000000
     atom    2 type  1   force =     0.00000000   -0.00000000    0.00000000

     Total force =     0.000000     Total SCF correction =     0.000000


     Computing stress (Cartesian axis) and pressure

          total   stress  (Ry/bohr**3)                   (kbar)     P=      -14.82
  -0.00010075   0.00000000   0.00000000          -14.82        0.00        0.00
   0.00000000  -0.00010075   0.00000000            0.00      -14.82        0.00
   0.00000000   0.00000000  -0.00010075            0.00        0.00      -14.82

     Energy error            =      6.4E-03 Ry
     Gradient error          =      4.0E-31 Ry/Bohr
     Cell gradient error     =      1.5E+01 kbar

     number of scf cycles    =   2
     number of bfgs steps    =   1

     enthalpy           old  =    -500.3895772678 Ry
     enthalpy           new  =    -500.3960165802 Ry

     CASE: enthalpy          _new < enthalpy          _old

     new trust radius        =       0.0066215197 bohr
     new conv_thr            =            1.0E-10 Ry

     new unit-cell volume =    146.33140 a.u.^3 (    21.68408 Ang^3 )
     density =      8.55308 g/cm^3

CELL_PARAMETERS (angstrom)
   2.788562042   0.000000000   0.000000000
   0.000000000   2.788562042   0.000000000
   0.000000000   0.000000000   2.788562042

ATOMIC_POSITIONS (crystal)
Fe               0.0000000000       -0.0000000000        0.0000000000
Fe               0.5000000000        0.5000000000        0.5000000000



     Writing config-only to output data dir ./out/Fe_bcc_fm.save/ :
     XML data file
     NEW-OLD atomic charge density approx. for the potential
     New effective cutoffs (rho, wfc):  739.27   73.94

     Check: negative core charge=   -0.000038
     Generating pointlists ...

     total cpu time spent up to now is        9.5 secs

     Self-consistent Calculation

     iteration #  1     ecut=    70.00 Ry     beta= 0.70
     Davidson diagonalization with overlap
     ethr =  1.00E-06,  avg # of iterations =  3.0

     total cpu time spent up to now is        9.6 secs

     total energy              =    -500.39601516 Ry
     estimated scf accuracy    <       0.00009036 Ry

     total magnetization       =     4.30 Bohr mag/cell
     absolute magnetization    =     4.50 Bohr mag/cell

     iteration #  2     ecut=    70.00 Ry     beta= 0.70
     Davidson diagonalization with overlap
     ethr =  2.82E-07,  avg # of iterations =  3.2

     total cpu time spent up to now is        9.8 secs

     total energy              =    -500.39601272 Ry
     estimated scf accuracy    <       0.00024494 Ry

     total magnetization       =     4.31 Bohr mag/cell
     absolute magnetization    =     4.50 Bohr mag/cell

     iteration #  3     ecut=    70.00 Ry     beta= 0.70
     Davidson diagonalization with overlap
     ethr =  2.82E-07,  avg # of iterations =  2.9

     total cpu time spent up to now is       10.0 secs

     total energy              =    -500.39604783 Ry
     estimated scf accuracy    <       0.00021938 Ry

     total magnetization       =     4.30 Bohr mag/cell
     absolute magnetization    =     4.49 Bohr mag/cell

     iteration #  4     ecut=    70.00 Ry     beta= 0.70
     Davidson diagonalization with overlap
     ethr =  2.82E-07,  avg # of iterations =  1.1

     total cpu time spent up to now is       10.1 secs

     total energy              =    -500.39606037 Ry
     estimated scf accuracy    <       0.00000471 Ry

     total magnetization       =     4.30 Bohr mag/cell
     absolute magnetization    =     4.49 Bohr mag/cell

     iteration #  5     ecut=    70.00 Ry     beta= 0.70
     Davidson diagonalization with overlap
     ethr =  1.47E-08,  avg # of iterations =  2.0

     total cpu time spent up to now is       10.2 secs

     total energy              =    -500.39606194 Ry
     estimated scf accuracy    <       0.00000043 Ry

     total magnetization       =     4.29 Bohr mag/cell
     absolute magnetization    =     4.48 Bohr mag/cell

     iteration #  6     ecut=    70.00 Ry     beta= 0.70
     Davidson diagonalization with overlap
     ethr =  1.34E-09,  avg # of iterations =  2.0

     total cpu time spent up to now is       10.4 secs

     total energy              =    -500.39606205 Ry
     estimated scf accuracy    <       0.00000001 Ry

     total magnetization       =     4.29 Bohr mag/cell
     absolute magnetization    =     4.48 Bohr mag/cell

     iteration #  7     ecut=    70.00 Ry     beta= 0.70
     Davidson diagonalization with overlap
     ethr =  3.82E-11,  avg # of iterations =  2.9

     total cpu time spent up to now is       10.5 secs

     total energy              =    -500.39606205 Ry
     estimated scf accuracy    <       0.00000002 Ry

     total magnetization       =     4.29 Bohr mag/cell
     absolute magnetization    =     4.48 Bohr mag/cell

     iteration #  8     ecut=    70.00 Ry     beta= 0.70
     Davidson diagonalization with overlap
     ethr =  3.82E-11,  avg # of iterations =  1.3

     total cpu time spent up to now is       10.7 secs

     total energy              =    -500.39606205 Ry
     estimated scf accuracy    <          3.3E-10 Ry

     total magnetization       =     4.29 Bohr mag/cell
     absolute magnetization    =     4.48 Bohr mag/cell

     iteration #  9     ecut=    70.00 Ry     beta= 0.70
     Davidson diagonalization with overlap
     ethr =  1.03E-12,  avg # of iterations =  2.5

     total cpu time spent up to now is       10.8 secs

     total energy              =    -500.39606205 Ry
     estimated scf accuracy    <          1.7E-10 Ry

     total magnetization       =     4.29 Bohr mag/cell
     absolute magnetization    =     4.48 Bohr mag/cell

     iteration # 10     ecut=    70.00 Ry     beta= 0.70
     Davidson diagonalization with overlap
     ethr =  5.18E-13,  avg # of iterations =  1.5
 
     Magnetic moment per site  (integrated on atomic sphere of radius R)
     atom   1 (R=0.349)  charge= 14.3640  magn=  2.1808
     atom   2 (R=0.349)  charge= 14.3641  magn=  2.1808

     total cpu time spent up to now is       11.0 secs

     End of self-consistent calculation

     Number of k-points >= 100: set verbosity='high' to print the bands.

     the Fermi energy is    19.1445 ev

!    total energy              =    -500.39606205 Ry
     estimated scf accuracy    <          2.7E-12 Ry
     smearing contrib. (-TS)   =      -0.00006948 Ry
     internal energy E=F+TS    =    -500.39599257 Ry

     The total energy is F=E-TS. E is the sum of the following terms:
     one-electron contribution =    -218.07043099 Ry
     hartree contribution      =     129.16666910 Ry
     xc contribution           =     -57.90164120 Ry
     ewald contribution        =    -353.59058949 Ry

     total magnetization       =     4.29 Bohr mag/cell
     absolute magnetization    =     4.48 Bohr mag/cell

     convergence has been achieved in  10 iterations

     Forces acting on atoms (cartesian axes, Ry/au):

     atom    1 type  1   force =     0.00000000    0.00000000    0.00000000
     atom    2 type  1   force =     0.00000000    0.00000000    0.00000000

     Total force =     0.000000     Total SCF correction =     0.000000


     Computing stress (Cartesian axis) and pressure

          total   stress  (Ry/bohr**3)                   (kbar)     P=        3.05
   0.00002072   0.00000000   0.00000000            3.05        0.00        0.00
   0.00000000   0.00002072   0.00000000            0.00        3.05        0.00
   0.00000000   0.00000000   0.00002072            0.00        0.00        3.05

     Energy error            =      4.5E-05 Ry
     Gradient error          =      0.0E+00 Ry/Bohr
     Cell gradient error     =      3.0E+00 kbar

     number of scf cycles    =   3
     number of bfgs steps    =   2

     enthalpy           old  =    -500.3960165802 Ry
     enthalpy           new  =    -500.3960620529 Ry

     CASE: enthalpy          _new < enthalpy          _old

     new trust radius        =       0.0011227610 bohr
     new conv_thr            =            1.0E-10 Ry

     new unit-cell volume =    146.53522 a.u.^3 (    21.71428 Ang^3 )
     density =      8.54118 g/cm^3

CELL_PARAMETERS (angstrom)
   2.789856145   0.000000000   0.000000000
   0.000000000   2.789856145   0.000000000
   0.000000000   0.000000000   2.789856145

ATOMIC_POSITIONS (crystal)
Fe               0.0000000000       -0.0000000000        0.0000000000
Fe               0.5000000000        0.5000000000        0.5000000000



     Writing config-only to output data dir ./out/Fe_bcc_fm.save/ :
     XML data file
     NEW-OLD atomic charge density approx. for the potential
     New effective cutoffs (rho, wfc):  738.59   73.87

     Check: negative core charge=   -0.000039
     Generating pointlists ...

     total cpu time spent up to now is       11.1 secs

     Self-consistent Calculation

     iteration #  1     ecut=    70.00 Ry     beta= 0.70
     Davidson diagonalization with overlap
     ethr =  1.00E-06,  avg # of iterations =  2.0

     Threshold (ethr) on eigenvalues was too large:
     Diagonalizing with lowered threshold

     Davidson diagonalization with overlap
     ethr =  8.07E-09,  avg # of iterations =  1.0

     total cpu time spent up to now is       11.4 secs

     total energy              =    -500.39606281 Ry
     estimated scf accuracy    <       0.00000272 Ry

     total magnetization       =     4.29 Bohr mag/cell
     absolute magnetization    =     4.49 Bohr mag/cell

     iteration #  2     ecut=    70.00 Ry     beta= 0.70
     Davidson diagonalization with overlap
     ethr =  8.51E-09,  avg # of iterations =  3.2

     total cpu time spent up to now is       11.6 secs

     total energy              =    -500.39606286 Ry
     estimated scf accuracy    <       0.00000727 Ry

     total magnetization       =     4.29 Bohr mag/cell
     absolute magnetization    =     4.49 Bohr mag/cell

     iteration #  3     ecut=    70.00 Ry     beta= 0.70
     Davidson diagonalization with overlap
     ethr =  8.51E-09,  avg # of iterations =  2.8

     total cpu time spent up to now is       11.7 secs

     total energy              =    -500.39606413 Ry
     estimated scf accuracy    <       0.00000046 Ry

     total magnetization       =     4.30 Bohr mag/cell
     absolute magnetization    =     4.49 Bohr mag/cell

     iteration #  4     ecut=    70.00 Ry     beta= 0.70
     Davidson diagonalization with overlap
     ethr =  1.43E-09,  avg # of iterations =  1.7

     total cpu time spent up to now is       11.8 secs

     total energy              =    -500.39606418 Ry
     estimated scf accuracy    <       0.00000085 Ry

     total magnetization       =     4.30 Bohr mag/cell
     absolute magnetization    =     4.49 Bohr mag/cell

     iteration #  5     ecut=    70.00 Ry     beta= 0.70
     Davidson diagonalization with overlap
     ethr =  1.43E-09,  avg # of iterations =  1.5

     total cpu time spent up to now is       12.0 secs

     total energy              =    -500.39606424 Ry
     estimated scf accuracy    <       0.00000001 Ry

     total magnetization       =     4.30 Bohr mag/cell
     absolute magnetization    =     4.49 Bohr mag/cell

     iteration #  6     ecut=    70.00 Ry     beta= 0.70
     Davidson diagonalization with overlap
     ethr =  4.12E-11,  avg # of iterations =  2.7

     total cpu time spent up to now is       12.1 secs

     total energy              =    -500.39606425 Ry
     estimated scf accuracy    <          3.2E-09 Ry

     total magnetization       =     4.30 Bohr mag/cell
     absolute magnetization    =     4.49 Bohr mag/cell

     iteration #  7     ecut=    70.00 Ry     beta= 0.70
     Davidson diagonalization with overlap
     ethr =  1.01E-11,  avg # of iterations =  1.4

     total cpu time spent up to now is       12.3 secs

     total energy              =    -500.39606425 Ry
     estimated scf accuracy    <          3.7E-10 Ry

     total magnetization       =     4.30 Bohr mag/cell
     absolute magnetization    =     4.49 Bohr mag/cell

     iteration #  8     ecut=    70.00 Ry     beta= 0.70
     Davidson diagonalization with overlap
     ethr =  1.16E-12,  avg # of iterations =  2.1
 
     Magnetic moment per site  (integrated on atomic sphere of radius R)
     atom   1 (R=0.349)  charge= 14.3623  magn=  2.1837
     atom   2 (R=0.349)  charge= 14.3624  magn=  2.1836

     total cpu time spent up to now is       12.4 secs

     End of self-consistent calculation

     Number of k-points >= 100: set verbosity='high' to print the bands.

     the Fermi energy is    19.1109 ev

!    total energy              =    -500.39606425 Ry
     estimated scf accuracy    <          1.5E-11 Ry
     smearing contrib. (-TS)   =      -0.00007714 Ry
     internal energy E=F+TS    =    -500.39598711 Ry

     The total energy is F=E-TS. E is the sum of the following terms:
     one-electron contribution =    -218.33005677 Ry
     hartree contribution      =     129.26055092 Ry
     xc contribution           =     -57.89990836 Ry
     ewald contribution        =    -353.42657290 Ry

     total magnetization       =     4.30 Bohr mag/cell
     absolute magnetization    =     4.49 Bohr mag/cell

     convergence has been achieved in   8 iterations

     Forces acting on atoms (cartesian axes, Ry/au):

     atom    1 type  1   force =     0.00000000    0.00000000    0.00000000
     atom    2 type  1   force =     0.00000000   -0.00000000    0.00000000

     Total force =     0.000000     Total SCF correction =     0.000000


     Computing stress (Cartesian axis) and pressure

          total   stress  (Ry/bohr**3)                   (kbar)     P=        0.16
   0.00000109   0.00000000   0.00000000            0.16        0.00        0.00
   0.00000000   0.00000109   0.00000000            0.00        0.16        0.00
   0.00000000   0.00000000   0.00000109            0.00        0.00        0.16

     Energy error            =      2.2E-06 Ry
     Gradient error          =      3.4E-31 Ry/Bohr
     Cell gradient error     =      1.6E-01 kbar

     bfgs converged in   4 scf cycles and   3 bfgs steps
     (criteria: energy <  1.0E-04 Ry, force <  1.0E-03 Ry/Bohr, cell <  5.0E-01 kbar)

     End of BFGS Geometry Optimization

     Final enthalpy           =    -500.3960642498 Ry

     File ./out/Fe_bcc_fm.bfgs deleted, as requested
Begin final coordinates
     new unit-cell volume =    146.53522 a.u.^3 (    21.71428 Ang^3 )
     density =      8.54118 g/cm^3

CELL_PARAMETERS (angstrom)
   2.789856145   0.000000000   0.000000000
   0.000000000   2.789856145   0.000000000
   0.000000000   0.000000000   2.789856145

ATOMIC_POSITIONS (crystal)
Fe               0.0000000000       -0.0000000000        0.0000000000
Fe               0.5000000000        0.5000000000        0.5000000000
End final coordinates



     Writing config-only to output data dir ./out/Fe_bcc_fm.save/ :
     XML data file

     Final scf calculation at the relaxed structure.
     The G-vectors are recalculated for the final unit cell
     Results may differ from those at the preceding step.
 
     Parallelization info
     --------------------
     sticks:   dense  smooth     PW     G-vecs:    dense   smooth      PW
     Min         387     154     48                11453     2908     524
     Max         388     156     49                11456     2909     527
     Sum        1549     621    193                45817    11633    2103
 
     Using Slab Decomposition
 


     bravais-lattice index     =            0
     lattice parameter (alat)  =       5.4160  a.u.
     unit-cell volume          =     146.5352 (a.u.)^3
     number of atoms/cell      =            2
     number of atomic types    =            1
     number of electrons       =        32.00
     number of Kohn-Sham states=           20
     kinetic-energy cutoff     =      70.0000  Ry
     charge density cutoff     =     700.0000  Ry
     scf convergence threshold =      1.0E-10
     mixing beta               =       0.7000
     number of iterations used =            8  plain     mixing
     press convergence thresh. =      5.0E-01
     Exchange-correlation= SLA  PW   PSX  PSC
                           (   1   4  10   8   0   0   0)

     celldm(1)=   5.415955  celldm(2)=   0.000000  celldm(3)=   0.000000
     celldm(4)=   0.000000  celldm(5)=   0.000000  celldm(6)=   0.000000

     crystal axes: (cart. coord. in units of alat)
               a(1) = (   0.973432   0.000000   0.000000 )  
               a(2) = (   0.000000   0.973432   0.000000 )  
               a(3) = (   0.000000   0.000000   0.973432 )  

     reciprocal axes: (cart. coord. in units 2 pi/alat)
               b(1) = (  1.027293  0.000000  0.000000 )  
               b(2) = (  0.000000  1.027293  0.000000 )  
               b(3) = (  0.000000  0.000000  1.027293 )  


     PseudoPot. # 1 for Fe read from file:
     /home/m0049/m004905/PSPOT/fe_pbesol_v1.5.uspp.F.UPF
     MD5 check sum: a3f38e9a1a818e424be8f97771a26c64
     Pseudo is Ultrasoft + core correction, Zval = 16.0
     Generated by new atomic code, or converted to UPF format
     Using radial grid of  861 points,  6 beta functions with: 
                l(1) =   0
                l(2) =   0
                l(3) =   1
                l(4) =   1
                l(5) =   2
                l(6) =   2
     Q(r) pseudized with  8 coefficients,  rinner =    1.000   1.000   1.000
                                                       1.000   1.000

     atomic species   valence    mass     pseudopotential
     Fe               16.00    55.84500     Fe( 1.00)

     Starting magnetic structure 
     atomic species   magnetization
     Fe              0.152

     48 Sym. Ops., with inversion, found



   Cartesian axes

     site n.     atom                  positions (alat units)
         1        Fe     tau(   1) = (   0.0000000  -0.0000000   0.0000000  )
         2        Fe     tau(   2) = (   0.4867160   0.4867160   0.4867160  )

     number of k points=    84  Methfessel-Paxton smearing, width (Ry)=  0.0100
                       cart. coord. in units 2pi/alat
        k(    1) = (   0.0000000   0.0000000   0.0000000), wk =   0.0005787
        k(    2) = (   0.0000000   0.0000000   0.0856078), wk =   0.0034722
        k(    3) = (   0.0000000   0.0000000   0.1712155), wk =   0.0034722
        k(    4) = (   0.0000000   0.0000000   0.2568233), wk =   0.0034722
        k(    5) = (   0.0000000   0.0000000   0.3424310), wk =   0.0034722
        k(    6) = (   0.0000000   0.0000000   0.4280388), wk =   0.0034722
        k(    7) = (   0.0000000   0.0000000  -0.5136466), wk =   0.0017361
        k(    8) = (   0.0000000   0.0856078   0.0856078), wk =   0.0069444
        k(    9) = (   0.0000000   0.0856078   0.1712155), wk =   0.0138889
        k(   10) = (   0.0000000   0.0856078   0.2568233), wk =   0.0138889
        k(   11) = (   0.0000000   0.0856078   0.3424310), wk =   0.0138889
        k(   12) = (   0.0000000   0.0856078   0.4280388), wk =   0.0138889
        k(   13) = (   0.0000000   0.0856078  -0.5136466), wk =   0.0069444
        k(   14) = (   0.0000000   0.1712155   0.1712155), wk =   0.0069444
        k(   15) = (   0.0000000   0.1712155   0.2568233), wk =   0.0138889
        k(   16) = (   0.0000000   0.1712155   0.3424310), wk =   0.0138889
        k(   17) = (   0.0000000   0.1712155   0.4280388), wk =   0.0138889
        k(   18) = (   0.0000000   0.1712155  -0.5136466), wk =   0.0069444
        k(   19) = (   0.0000000   0.2568233   0.2568233), wk =   0.0069444
        k(   20) = (   0.0000000   0.2568233   0.3424310), wk =   0.0138889
        k(   21) = (   0.0000000   0.2568233   0.4280388), wk =   0.0138889
        k(   22) = (   0.0000000   0.2568233  -0.5136466), wk =   0.0069444
        k(   23) = (   0.0000000   0.3424310   0.3424310), wk =   0.0069444
        k(   24) = (   0.0000000   0.3424310   0.4280388), wk =   0.0138889
        k(   25) = (   0.0000000   0.3424310  -0.5136466), wk =   0.0069444
        k(   26) = (   0.0000000   0.4280388   0.4280388), wk =   0.0069444
        k(   27) = (   0.0000000   0.4280388  -0.5136466), wk =   0.0069444
        k(   28) = (   0.0000000  -0.5136466  -0.5136466), wk =   0.0017361
        k(   29) = (   0.0856078   0.0856078   0.0856078), wk =   0.0046296
        k(   30) = (   0.0856078   0.0856078   0.1712155), wk =   0.0138889
        k(   31) = (   0.0856078   0.0856078   0.2568233), wk =   0.0138889
        k(   32) = (   0.0856078   0.0856078   0.3424310), wk =   0.0138889
        k(   33) = (   0.0856078   0.0856078   0.4280388), wk =   0.0138889
        k(   34) = (   0.0856078   0.0856078  -0.5136466), wk =   0.0069444
        k(   35) = (   0.0856078   0.1712155   0.1712155), wk =   0.0138889
        k(   36) = (   0.0856078   0.1712155   0.2568233), wk =   0.0277778
        k(   37) = (   0.0856078   0.1712155   0.3424310), wk =   0.0277778
        k(   38) = (   0.0856078   0.1712155   0.4280388), wk =   0.0277778
        k(   39) = (   0.0856078   0.1712155  -0.5136466), wk =   0.0138889
        k(   40) = (   0.0856078   0.2568233   0.2568233), wk =   0.0138889
        k(   41) = (   0.0856078   0.2568233   0.3424310), wk =   0.0277778
        k(   42) = (   0.0856078   0.2568233   0.4280388), wk =   0.0277778
        k(   43) = (   0.0856078   0.2568233  -0.5136466), wk =   0.0138889
        k(   44) = (   0.0856078   0.3424310   0.3424310), wk =   0.0138889
        k(   45) = (   0.0856078   0.3424310   0.4280388), wk =   0.0277778
        k(   46) = (   0.0856078   0.3424310  -0.5136466), wk =   0.0138889
        k(   47) = (   0.0856078   0.4280388   0.4280388), wk =   0.0138889
        k(   48) = (   0.0856078   0.4280388  -0.5136466), wk =   0.0138889
        k(   49) = (   0.0856078  -0.5136466  -0.5136466), wk =   0.0034722
        k(   50) = (   0.1712155   0.1712155   0.1712155), wk =   0.0046296
        k(   51) = (   0.1712155   0.1712155   0.2568233), wk =   0.0138889
        k(   52) = (   0.1712155   0.1712155   0.3424310), wk =   0.0138889
        k(   53) = (   0.1712155   0.1712155   0.4280388), wk =   0.0138889
        k(   54) = (   0.1712155   0.1712155  -0.5136466), wk =   0.0069444
        k(   55) = (   0.1712155   0.2568233   0.2568233), wk =   0.0138889
        k(   56) = (   0.1712155   0.2568233   0.3424310), wk =   0.0277778
        k(   57) = (   0.1712155   0.2568233   0.4280388), wk =   0.0277778
        k(   58) = (   0.1712155   0.2568233  -0.5136466), wk =   0.0138889
        k(   59) = (   0.1712155   0.3424310   0.3424310), wk =   0.0138889
        k(   60) = (   0.1712155   0.3424310   0.4280388), wk =   0.0277778
        k(   61) = (   0.1712155   0.3424310  -0.5136466), wk =   0.0138889
        k(   62) = (   0.1712155   0.4280388   0.4280388), wk =   0.0138889
        k(   63) = (   0.1712155   0.4280388  -0.5136466), wk =   0.0138889
        k(   64) = (   0.1712155  -0.5136466  -0.5136466), wk =   0.0034722
        k(   65) = (   0.2568233   0.2568233   0.2568233), wk =   0.0046296
        k(   66) = (   0.2568233   0.2568233   0.3424310), wk =   0.0138889
        k(   67) = (   0.2568233   0.2568233   0.4280388), wk =   0.0138889
        k(   68) = (   0.2568233   0.2568233  -0.5136466), wk =   0.0069444
        k(   69) = (   0.2568233   0.3424310   0.3424310), wk =   0.0138889
        k(   70) = (   0.2568233   0.3424310   0.4280388), wk =   0.0277778
        k(   71) = (   0.2568233   0.3424310  -0.5136466), wk =   0.0138889
        k(   72) = (   0.2568233   0.4280388   0.4280388), wk =   0.0138889
        k(   73) = (   0.2568233   0.4280388  -0.5136466), wk =   0.0138889
        k(   74) = (   0.2568233  -0.5136466  -0.5136466), wk =   0.0034722
        k(   75) = (   0.3424310   0.3424310   0.3424310), wk =   0.0046296
        k(   76) = (   0.3424310   0.3424310   0.4280388), wk =   0.0138889
        k(   77) = (   0.3424310   0.3424310  -0.5136466), wk =   0.0069444
        k(   78) = (   0.3424310   0.4280388   0.4280388), wk =   0.0138889
        k(   79) = (   0.3424310   0.4280388  -0.5136466), wk =   0.0138889
        k(   80) = (   0.3424310  -0.5136466  -0.5136466), wk =   0.0034722
        k(   81) = (   0.4280388   0.4280388   0.4280388), wk =   0.0046296
        k(   82) = (   0.4280388   0.4280388  -0.5136466), wk =   0.0069444
        k(   83) = (   0.4280388  -0.5136466  -0.5136466), wk =   0.0034722
        k(   84) = (  -0.5136466  -0.5136466  -0.5136466), wk =   0.0005787

     Dense  grid:    45817 G-vectors     FFT dimensions: (  45,  45,  45)

     Smooth grid:    11633 G-vectors     FFT dimensions: (  30,  30,  30)

     Estimated max dynamical RAM per process >      18.41 MB

     Estimated total dynamical RAM >       1.02 GB

     Check: negative core charge=   -0.000056
     Generating pointlists ...

     Initial potential from superposition of free atoms

     starting charge      30.0000, renormalised to      32.0000
     Starting wfcs are   26 randomized atomic wfcs

     total cpu time spent up to now is       12.7 secs

     Self-consistent Calculation

     iteration #  1     ecut=    70.00 Ry     beta= 0.70
     Davidson diagonalization with overlap
     ethr =  1.00E-06,  avg # of iterations =  7.9

     total cpu time spent up to now is       13.0 secs

     total energy              =    -497.86174650 Ry
     estimated scf accuracy    <       4.60109020 Ry

     total magnetization       =     3.55 Bohr mag/cell
     absolute magnetization    =     3.55 Bohr mag/cell

     iteration #  2     ecut=    70.00 Ry     beta= 0.70
     Davidson diagonalization with overlap
     ethr =  1.00E-02,  avg # of iterations =  3.0

     total cpu time spent up to now is       13.2 secs

     total energy              =    -498.27805364 Ry
     estimated scf accuracy    <      12.03620506 Ry

     total magnetization       =     4.09 Bohr mag/cell
     absolute magnetization    =     4.10 Bohr mag/cell

     iteration #  3     ecut=    70.00 Ry     beta= 0.70
     Davidson diagonalization with overlap
     ethr =  1.00E-02,  avg # of iterations =  2.5

     total cpu time spent up to now is       13.4 secs

     total energy              =    -500.38921811 Ry
     estimated scf accuracy    <       0.00635676 Ry

     total magnetization       =     4.07 Bohr mag/cell
     absolute magnetization    =     4.16 Bohr mag/cell

     iteration #  4     ecut=    70.00 Ry     beta= 0.70
     Davidson diagonalization with overlap
     ethr =  1.99E-05,  avg # of iterations =  3.3

     total cpu time spent up to now is       13.5 secs

     total energy              =    -500.39240765 Ry
     estimated scf accuracy    <       0.00757026 Ry

     total magnetization       =     4.12 Bohr mag/cell
     absolute magnetization    =     4.24 Bohr mag/cell

     iteration #  5     ecut=    70.00 Ry     beta= 0.70
     Davidson diagonalization with overlap
     ethr =  1.99E-05,  avg # of iterations =  2.6

     total cpu time spent up to now is       13.7 secs

     total energy              =    -500.39609223 Ry
     estimated scf accuracy    <       0.01452119 Ry

     total magnetization       =     4.25 Bohr mag/cell
     absolute magnetization    =     4.40 Bohr mag/cell

     iteration #  6     ecut=    70.00 Ry     beta= 0.70
     Davidson diagonalization with overlap
     ethr =  1.99E-05,  avg # of iterations =  1.0

     total cpu time spent up to now is       13.8 secs

     total energy              =    -500.39458272 Ry
     estimated scf accuracy    <       0.00614602 Ry

     total magnetization       =     4.26 Bohr mag/cell
     absolute magnetization    =     4.41 Bohr mag/cell

     iteration #  7     ecut=    70.00 Ry     beta= 0.70
     Davidson diagonalization with overlap
     ethr =  1.92E-05,  avg # of iterations =  2.3

     total cpu time spent up to now is       13.9 secs

     total energy              =    -500.39590351 Ry
     estimated scf accuracy    <       0.00008813 Ry

     total magnetization       =     4.28 Bohr mag/cell
     absolute magnetization    =     4.46 Bohr mag/cell

     iteration #  8     ecut=    70.00 Ry     beta= 0.70
     Davidson diagonalization with overlap
     ethr =  2.75E-07,  avg # of iterations =  2.3

     total cpu time spent up to now is       14.1 secs

     total energy              =    -500.39593355 Ry
     estimated scf accuracy    <       0.00001386 Ry

     total magnetization       =     4.29 Bohr mag/cell
     absolute magnetization    =     4.47 Bohr mag/cell

     iteration #  9     ecut=    70.00 Ry     beta= 0.70
     Davidson diagonalization with overlap
     ethr =  4.33E-08,  avg # of iterations =  2.1

     total cpu time spent up to now is       14.2 secs

     total energy              =    -500.39593938 Ry
     estimated scf accuracy    <       0.00000141 Ry

     total magnetization       =     4.29 Bohr mag/cell
     absolute magnetization    =     4.48 Bohr mag/cell

     iteration # 10     ecut=    70.00 Ry     beta= 0.70
     Davidson diagonalization with overlap
     ethr =  4.42E-09,  avg # of iterations =  1.7

     total cpu time spent up to now is       14.4 secs

     total energy              =    -500.39593965 Ry
     estimated scf accuracy    <       0.00000017 Ry

     total magnetization       =     4.30 Bohr mag/cell
     absolute magnetization    =     4.49 Bohr mag/cell

     iteration # 11     ecut=    70.00 Ry     beta= 0.70
     Davidson diagonalization with overlap
     ethr =  5.18E-10,  avg # of iterations =  2.7

     total cpu time spent up to now is       14.6 secs

     total energy              =    -500.39593979 Ry
     estimated scf accuracy    <       0.00000002 Ry

     total magnetization       =     4.30 Bohr mag/cell
     absolute magnetization    =     4.49 Bohr mag/cell

     iteration # 12     ecut=    70.00 Ry     beta= 0.70
     Davidson diagonalization with overlap
     ethr =  5.43E-11,  avg # of iterations =  2.1

     total cpu time spent up to now is       14.7 secs

     total energy              =    -500.39593980 Ry
     estimated scf accuracy    <          9.0E-09 Ry

     total magnetization       =     4.30 Bohr mag/cell
     absolute magnetization    =     4.49 Bohr mag/cell

     iteration # 13     ecut=    70.00 Ry     beta= 0.70
     Davidson diagonalization with overlap
     ethr =  2.82E-11,  avg # of iterations =  2.4

     total cpu time spent up to now is       14.8 secs

     total energy              =    -500.39593980 Ry
     estimated scf accuracy    <          1.4E-09 Ry

     total magnetization       =     4.30 Bohr mag/cell
     absolute magnetization    =     4.49 Bohr mag/cell

     iteration # 14     ecut=    70.00 Ry     beta= 0.70
     Davidson diagonalization with overlap
     ethr =  4.41E-12,  avg # of iterations =  2.0
 
     Magnetic moment per site  (integrated on atomic sphere of radius R)
     atom   1 (R=0.349)  charge= 14.3623  magn=  2.1837
     atom   2 (R=0.349)  charge= 14.3624  magn=  2.1837

     total cpu time spent up to now is       15.0 secs

     End of self-consistent calculation

     Number of k-points >= 100: set verbosity='high' to print the bands.

     the Fermi energy is    19.1109 ev

!    total energy              =    -500.39593980 Ry
     estimated scf accuracy    <          3.9E-11 Ry
     smearing contrib. (-TS)   =      -0.00007729 Ry
     internal energy E=F+TS    =    -500.39586250 Ry

     The total energy is F=E-TS. E is the sum of the following terms:
     one-electron contribution =    -218.32988258 Ry
     hartree contribution      =     129.26056899 Ry
     xc contribution           =     -57.89997601 Ry
     ewald contribution        =    -353.42657290 Ry

     total magnetization       =     4.30 Bohr mag/cell
     absolute magnetization    =     4.49 Bohr mag/cell

     convergence has been achieved in  14 iterations

     Forces acting on atoms (cartesian axes, Ry/au):

     atom    1 type  1   force =     0.00000000    0.00000000   -0.00000000
     atom    2 type  1   force =     0.00000000    0.00000000    0.00000000

     Total force =     0.000000     Total SCF correction =     0.000000


     Computing stress (Cartesian axis) and pressure

          total   stress  (Ry/bohr**3)                   (kbar)     P=       -0.82
  -0.00000557   0.00000000   0.00000000           -0.82        0.00        0.00
   0.00000000  -0.00000557   0.00000000            0.00       -0.82        0.00
   0.00000000   0.00000000  -0.00000557            0.00        0.00       -0.82


     Writing all to output data dir ./out/Fe_bcc_fm.save/ :
     XML data file, charge density, pseudopotentials, collected wavefunctions
 
     init_run     :      0.56s CPU      3.07s WALL (       2 calls)
     electrons    :      8.58s CPU      9.89s WALL (       5 calls)
     update_pot   :      0.08s CPU      0.09s WALL (       3 calls)
     forces       :      0.18s CPU      0.20s WALL (       5 calls)
     stress       :      0.31s CPU      0.34s WALL (       5 calls)

     Called by init_run:
     wfcinit      :      0.09s CPU      0.65s WALL (       2 calls)
     potinit      :      0.14s CPU      0.25s WALL (       2 calls)
     hinit0       :      0.16s CPU      1.76s WALL (       2 calls)

     Called by electrons:
     c_bands      :      5.51s CPU      6.01s WALL (      60 calls)
     sum_band     :      1.35s CPU      1.55s WALL (      60 calls)
     v_of_rho     :      1.41s CPU      1.59s WALL (      64 calls)
     newd         :      0.20s CPU      0.43s WALL (      64 calls)
     mix_rho      :      0.14s CPU      0.53s WALL (      60 calls)

     Called by c_bands:
     init_us_2    :      0.12s CPU      0.13s WALL (    1188 calls)
     cegterg      :      4.60s CPU      4.91s WALL (     540 calls)

     Called by *egterg:
     cdiaghg      :      0.62s CPU      1.13s WALL (    1636 calls)
     h_psi        :      3.53s CPU      3.86s WALL (    1690 calls)
     s_psi        :      0.06s CPU      0.06s WALL (    1690 calls)
     g_psi        :      0.02s CPU      0.02s WALL (    1132 calls)

     Called by h_psi:
     h_psi:calbec :      0.12s CPU      0.22s WALL (    1690 calls)
     vloc_psi     :      3.32s CPU      3.54s WALL (    1690 calls)
                                        0.00s GPU  (    1690 calls)
     add_vuspsi   :      0.07s CPU      0.07s WALL (    1690 calls)

     General routines
     calbec       :      0.20s CPU      0.31s WALL (    2995 calls)
     fft          :      0.75s CPU      1.77s WALL (    1795 calls)
     ffts         :      0.03s CPU      0.08s WALL (     248 calls)
     fftw         :      3.57s CPU      3.80s WALL (   66440 calls)
     interpolate  :      0.07s CPU      0.12s WALL (     128 calls)
 
     Parallel routines
 
     PWSCF        :      9.96s CPU     15.23s WALL

 
   This run was terminated on:  18:31:21  10Jul2025            

=------------------------------------------------------------------------------=
   JOB DONE.
=------------------------------------------------------------------------------=
