
     Program PWSCF v.7.4.1 starts on 10Jul2025 at 17:53:11 

     This program is part of the open-source Quantum ESPRESSO suite
     for quantum simulation of materials; please cite
         "P. Giannozzi et al., J. Phys.:Condens. Matter 21 395502 (2009);
         "P. Giannozzi et al., J. Phys.:Condens. Matter 29 465901 (2017);
         "P. Giannozzi et al., J. Chem. Phys. 152 154105 (2020);
          URL http://www.quantum-espresso.org", 
     in publications or presentations arising from this work. More details at
     http://www.quantum-espresso.org/quote

     Parallel version (MPI & OpenMP), running on      80 processor cores
     Number of MPI processes:                80
     Threads/MPI process:                     1

     MPI processes distributed on     1 nodes
     3057891 MiB available memory on the printing compute node when the environment starts
 
     Waiting for input...
     Reading input from standard input

     Current dimensions of program PWSCF are:
     Max number of different atomic species (ntypx) = 10
     Max number of k-points (npk) =  40000
     Max angular momentum in pseudopotentials (lmaxx) =  4
     Message from routine setup:
     using ibrav=0 with symmetry is DISCOURAGED, use correct ibrav instead
 
     K-points division:     npool     =      20
     R & G space division:  proc/nbgrp/npool/nimage =       4
     Subspace diagonalization in iterative solution of the eigenvalue problem:
     a serial algorithm will be used

 
     Parallelization info
     --------------------
     sticks:   dense  smooth     PW     G-vecs:    dense   smooth      PW
     Min         267     107     37                11389     2888     573
     Max         268     109     38                11394     2891     576
     Sum        1069     433    151                45563    11561    2297
 
     Using Slab Decomposition
 


     bravais-lattice index     =            0
     lattice parameter (alat)  =       4.7040  a.u.
     unit-cell volume          =     145.4992 (a.u.)^3
     number of atoms/cell      =            2
     number of atomic types    =            1
     number of electrons       =        32.00
     number of Kohn-Sham states=           20
     kinetic-energy cutoff     =      70.0000  Ry
     charge density cutoff     =     700.0000  Ry
     scf convergence threshold =      1.0E-08
     mixing beta               =       0.7000
     number of iterations used =            8  plain     mixing
     energy convergence thresh.=      1.0E-04
     force convergence thresh. =      1.0E-03
     press convergence thresh. =      5.0E-01
     Exchange-correlation=  SLA  PZ   NOGX NOGC
                           (   1   1   0   0   0   0   0)
     nstep                     =           50


     celldm(1)=   4.703973  celldm(2)=   0.000000  celldm(3)=   0.000000
     celldm(4)=   0.000000  celldm(5)=   0.000000  celldm(6)=   0.000000

     crystal axes: (cart. coord. in units of alat)
               a(1) = (   0.500154  -0.865937   0.000000 )  
               a(2) = (   0.500154   0.865937   0.000000 )  
               a(3) = (   0.000000   0.000000   1.613789 )  

     reciprocal axes: (cart. coord. in units 2 pi/alat)
               b(1) = (  0.999693 -0.577409  0.000000 )  
               b(2) = (  0.999693  0.577409  0.000000 )  
               b(3) = (  0.000000  0.000000  0.619660 )  


     PseudoPot. # 1 for Fe read from file:
     /home/m0049/m004905/PSPOT/fe_lda_v1.5.uspp.F.UPF
     MD5 check sum: 70aee299febfc78ac0df086b2000f8f7
     Pseudo is Ultrasoft + core correction, Zval = 16.0
     Generated by new atomic code, or converted to UPF format
     Using radial grid of  861 points,  6 beta functions with: 
                l(1) =   0
                l(2) =   0
                l(3) =   1
                l(4) =   1
                l(5) =   2
                l(6) =   2
     Q(r) pseudized with  8 coefficients,  rinner =    1.000   1.000   1.000
                                                       1.000   1.000

     atomic species   valence    mass     pseudopotential
     Fe               16.00    55.84500     Fe( 1.00)

      8 Sym. Ops., with inversion, found ( 4 have fractional translation)



   Cartesian axes

     site n.     atom                  positions (alat units)
         1        Fe     tau(   1) = (   0.0000000   0.0000000   0.0000000  )
         2        Fe     tau(   2) = (   0.5001536  -0.2886456   0.8068944  )

     number of k points=   215  Methfessel-Paxton smearing, width (Ry)=  0.0100

     Number of k-points >= 100: set verbosity='high' to print them.

     Dense  grid:    45563 G-vectors     FFT dimensions: (  45,  45,  64)

     Smooth grid:    11561 G-vectors     FFT dimensions: (  27,  27,  48)

     Estimated max dynamical RAM per process >      14.48 MB

     Estimated total dynamical RAM >     947.11 MB

     Check: negative core charge=   -0.000056

     Initial potential from superposition of free atoms

     starting charge      30.0000, renormalised to      32.0000
     Starting wfcs are   26 randomized atomic wfcs

     total cpu time spent up to now is        3.8 secs

     Self-consistent Calculation

     iteration #  1     ecut=    70.00 Ry     beta= 0.70
     Davidson diagonalization with overlap
     ethr =  1.00E-02,  avg # of iterations =  2.0

     total cpu time spent up to now is        4.1 secs

     total energy              =    -497.98032443 Ry
     estimated scf accuracy    <       4.81253309 Ry

     iteration #  2     ecut=    70.00 Ry     beta= 0.70
     Davidson diagonalization with overlap
     ethr =  1.00E-02,  avg # of iterations =  3.0

     total cpu time spent up to now is        4.8 secs

     total energy              =    -498.36724768 Ry
     estimated scf accuracy    <      12.89189003 Ry

     iteration #  3     ecut=    70.00 Ry     beta= 0.70
     Davidson diagonalization with overlap
     ethr =  1.00E-02,  avg # of iterations =  2.4

     total cpu time spent up to now is        5.2 secs

     total energy              =    -500.61522016 Ry
     estimated scf accuracy    <       0.00561150 Ry

     iteration #  4     ecut=    70.00 Ry     beta= 0.70
     Davidson diagonalization with overlap
     ethr =  1.75E-05,  avg # of iterations =  3.3

     total cpu time spent up to now is        5.3 secs

     total energy              =    -500.60966567 Ry
     estimated scf accuracy    <       0.01721060 Ry

     iteration #  5     ecut=    70.00 Ry     beta= 0.70
     Davidson diagonalization with overlap
     ethr =  1.75E-05,  avg # of iterations =  3.4

     total cpu time spent up to now is        5.6 secs

     total energy              =    -500.62201883 Ry
     estimated scf accuracy    <       0.03603862 Ry

     iteration #  6     ecut=    70.00 Ry     beta= 0.70
     Davidson diagonalization with overlap
     ethr =  1.75E-05,  avg # of iterations =  1.1

     total cpu time spent up to now is        5.7 secs

     total energy              =    -500.61958785 Ry
     estimated scf accuracy    <       0.02146135 Ry

     iteration #  7     ecut=    70.00 Ry     beta= 0.70
     Davidson diagonalization with overlap
     ethr =  1.75E-05,  avg # of iterations =  1.8

     total cpu time spent up to now is        5.8 secs

     total energy              =    -500.61782521 Ry
     estimated scf accuracy    <       0.01011171 Ry

     iteration #  8     ecut=    70.00 Ry     beta= 0.70
     Davidson diagonalization with overlap
     ethr =  1.75E-05,  avg # of iterations =  2.0

     total cpu time spent up to now is        6.0 secs

     total energy              =    -500.61731545 Ry
     estimated scf accuracy    <       0.00242830 Ry

     iteration #  9     ecut=    70.00 Ry     beta= 0.70
     Davidson diagonalization with overlap
     ethr =  7.59E-06,  avg # of iterations =  2.2

     total cpu time spent up to now is        6.1 secs

     total energy              =    -500.61784184 Ry
     estimated scf accuracy    <       0.00000949 Ry

     iteration # 10     ecut=    70.00 Ry     beta= 0.70
     Davidson diagonalization with overlap
     ethr =  2.97E-08,  avg # of iterations =  3.3

     total cpu time spent up to now is        6.3 secs

     total energy              =    -500.61784349 Ry
     estimated scf accuracy    <       0.00000421 Ry

     iteration # 11     ecut=    70.00 Ry     beta= 0.70
     Davidson diagonalization with overlap
     ethr =  1.31E-08,  avg # of iterations =  3.7

     total cpu time spent up to now is        6.5 secs

     total energy              =    -500.61784001 Ry
     estimated scf accuracy    <       0.00006338 Ry

     iteration # 12     ecut=    70.00 Ry     beta= 0.70
     Davidson diagonalization with overlap
     ethr =  1.31E-08,  avg # of iterations =  3.1

     total cpu time spent up to now is        6.7 secs

     total energy              =    -500.61784640 Ry
     estimated scf accuracy    <       0.00000285 Ry

     iteration # 13     ecut=    70.00 Ry     beta= 0.70
     Davidson diagonalization with overlap
     ethr =  8.89E-09,  avg # of iterations =  1.0

     total cpu time spent up to now is        6.8 secs

     total energy              =    -500.61784621 Ry
     estimated scf accuracy    <       0.00000179 Ry

     iteration # 14     ecut=    70.00 Ry     beta= 0.70
     Davidson diagonalization with overlap
     ethr =  5.60E-09,  avg # of iterations =  1.0

     total cpu time spent up to now is        6.9 secs

     total energy              =    -500.61784602 Ry
     estimated scf accuracy    <       0.00000090 Ry

     iteration # 15     ecut=    70.00 Ry     beta= 0.70
     Davidson diagonalization with overlap
     ethr =  2.83E-09,  avg # of iterations =  1.7

     total cpu time spent up to now is        7.1 secs

     total energy              =    -500.61784602 Ry
     estimated scf accuracy    <       0.00000015 Ry

     iteration # 16     ecut=    70.00 Ry     beta= 0.70
     Davidson diagonalization with overlap
     ethr =  4.75E-10,  avg # of iterations =  2.1

     total cpu time spent up to now is        7.2 secs

     End of self-consistent calculation

     Number of k-points >= 100: set verbosity='high' to print the bands.

     the Fermi energy is    18.9698 ev

!    total energy              =    -500.61784605 Ry
     estimated scf accuracy    <          3.5E-10 Ry
     smearing contrib. (-TS)   =       0.00014757 Ry
     internal energy E=F+TS    =    -500.61799362 Ry

     The total energy is F=E-TS. E is the sum of the following terms:
     one-electron contribution =    -217.31898935 Ry
     hartree contribution      =     128.35917699 Ry
     xc contribution           =     -57.43968876 Ry
     ewald contribution        =    -354.21849250 Ry

     convergence has been achieved in  16 iterations


     Computing stress (Cartesian axis) and pressure

          total   stress  (Ry/bohr**3)                   (kbar)     P=     -324.85
  -0.00202433   0.00000000   0.00000000         -297.79        0.00        0.00
   0.00000000  -0.00201534   0.00000000            0.00     -296.47        0.00
   0.00000000   0.00000000  -0.00258522            0.00        0.00     -380.30


     BFGS Geometry Optimization
     Energy error            =      5.9E-02 Ry
     Gradient error          =      0.0E+00 Ry/Bohr
     Cell gradient error     =      3.8E+02 kbar

     number of scf cycles    =   1
     number of bfgs steps    =   0

     enthalpy           new  =    -500.6178460457 Ry

     new trust radius        =       0.1559184375 bohr
     new conv_thr            =       0.0000000100 Ry

     new unit-cell volume =    122.69803 a.u.^3 (    18.18197 Ang^3 )
     density =     10.20052 g/cm^3

CELL_PARAMETERS (angstrom)
   1.181992842  -2.046917148   0.000000000
   1.181992842   2.046917148   0.000000000
   0.000000000   0.000000000   3.757473035

ATOMIC_POSITIONS (crystal)
Fe               0.0000000000        0.0000000000        0.0000000000    0   0   0
Fe               0.6666666667        0.3333333333        0.5000000000    0   0   0



     Writing config-only to output data dir ./out/Fe_hcp.save/ :
     XML data file
     NEW-OLD atomic charge density approx. for the potential
     New effective cutoffs (rho, wfc):  795.72   79.89

     Check: negative core charge=   -0.000021

     total cpu time spent up to now is        7.5 secs

     Self-consistent Calculation

     iteration #  1     ecut=    70.00 Ry     beta= 0.70
     Davidson diagonalization with overlap
     ethr =  1.00E-06,  avg # of iterations =  6.9

     total cpu time spent up to now is        7.8 secs

     total energy              =    -500.62129983 Ry
     estimated scf accuracy    <       0.02518694 Ry

     iteration #  2     ecut=    70.00 Ry     beta= 0.70
     Davidson diagonalization with overlap
     ethr =  7.87E-05,  avg # of iterations =  3.0

     total cpu time spent up to now is        8.0 secs

     total energy              =    -500.62438133 Ry
     estimated scf accuracy    <       0.06166463 Ry

     iteration #  3     ecut=    70.00 Ry     beta= 0.70
     Davidson diagonalization with overlap
     ethr =  7.87E-05,  avg # of iterations =  2.3

     total cpu time spent up to now is        8.1 secs

     total energy              =    -500.63522288 Ry
     estimated scf accuracy    <       0.00002996 Ry

     iteration #  4     ecut=    70.00 Ry     beta= 0.70
     Davidson diagonalization with overlap
     ethr =  9.36E-08,  avg # of iterations =  3.8

     total cpu time spent up to now is        8.3 secs

     total energy              =    -500.63527648 Ry
     estimated scf accuracy    <       0.00007689 Ry

     iteration #  5     ecut=    70.00 Ry     beta= 0.70
     Davidson diagonalization with overlap
     ethr =  9.36E-08,  avg # of iterations =  2.2

     total cpu time spent up to now is        8.5 secs

     total energy              =    -500.63528710 Ry
     estimated scf accuracy    <       0.00000098 Ry

     iteration #  6     ecut=    70.00 Ry     beta= 0.70
     Davidson diagonalization with overlap
     ethr =  3.07E-09,  avg # of iterations =  3.0

     total cpu time spent up to now is        8.6 secs

     total energy              =    -500.63528750 Ry
     estimated scf accuracy    <       0.00000082 Ry

     iteration #  7     ecut=    70.00 Ry     beta= 0.70
     Davidson diagonalization with overlap
     ethr =  2.58E-09,  avg # of iterations =  2.0

     total cpu time spent up to now is        8.8 secs

     End of self-consistent calculation

     Number of k-points >= 100: set verbosity='high' to print the bands.

     the Fermi energy is    23.3331 ev

!    total energy              =    -500.63528762 Ry
     estimated scf accuracy    <          8.7E-09 Ry
     smearing contrib. (-TS)   =       0.00004086 Ry
     internal energy E=F+TS    =    -500.63532848 Ry

     The total energy is F=E-TS. E is the sum of the following terms:
     one-electron contribution =    -185.11233511 Ry
     hartree contribution      =     117.16932549 Ry
     xc contribution           =     -57.79839938 Ry
     ewald contribution        =    -374.89391947 Ry

     convergence has been achieved in   7 iterations


     Computing stress (Cartesian axis) and pressure

          total   stress  (Ry/bohr**3)                   (kbar)     P=      192.80
   0.00135068   0.00000000   0.00000000          198.69        0.00        0.00
   0.00000000   0.00135677   0.00000000            0.00      199.59        0.00
   0.00000000   0.00000000   0.00122446            0.00        0.00      180.12

     Energy error            =      1.7E-02 Ry
     Gradient error          =      0.0E+00 Ry/Bohr
     Cell gradient error     =      2.0E+02 kbar

     number of scf cycles    =   2
     number of bfgs steps    =   1

     enthalpy           old  =    -500.6178460457 Ry
     enthalpy           new  =    -500.6352876185 Ry

     CASE: enthalpy          _new < enthalpy          _old

     new trust radius        =       0.0458894709 bohr
     new conv_thr            =            1.0E-10 Ry

     new unit-cell volume =    130.27844 a.u.^3 (    19.30527 Ang^3 )
     density =      9.60699 g/cm^3

CELL_PARAMETERS (angstrom)
   1.206376631  -2.089317018   0.000000000
   1.206376631   2.089317018   0.000000000
   0.000000000   0.000000000   3.829646593

ATOMIC_POSITIONS (crystal)
Fe               0.0000000000        0.0000000000        0.0000000000    0   0   0
Fe               0.6666666667        0.3333333333        0.5000000000    0   0   0



     Writing config-only to output data dir ./out/Fe_hcp.save/ :
     XML data file
     NEW-OLD atomic charge density approx. for the potential
     New effective cutoffs (rho, wfc):  765.62   76.90

     Check: negative core charge=   -0.000034

     total cpu time spent up to now is        9.4 secs

     Self-consistent Calculation

     iteration #  1     ecut=    70.00 Ry     beta= 0.70
     Davidson diagonalization with overlap
     ethr =  1.00E-06,  avg # of iterations =  4.0

     total cpu time spent up to now is        9.6 secs

     total energy              =    -500.63728220 Ry
     estimated scf accuracy    <       0.00278924 Ry

     iteration #  2     ecut=    70.00 Ry     beta= 0.70
     Davidson diagonalization with overlap
     ethr =  8.72E-06,  avg # of iterations =  3.0

     total cpu time spent up to now is        9.8 secs

     total energy              =    -500.63759332 Ry
     estimated scf accuracy    <       0.00747574 Ry

     iteration #  3     ecut=    70.00 Ry     beta= 0.70
     Davidson diagonalization with overlap
     ethr =  8.72E-06,  avg # of iterations =  2.5

     total cpu time spent up to now is       10.0 secs

     total energy              =    -500.63885417 Ry
     estimated scf accuracy    <       0.00000928 Ry

     iteration #  4     ecut=    70.00 Ry     beta= 0.70
     Davidson diagonalization with overlap
     ethr =  2.90E-08,  avg # of iterations =  3.4

     total cpu time spent up to now is       10.2 secs

     total energy              =    -500.63886371 Ry
     estimated scf accuracy    <       0.00001143 Ry

     iteration #  5     ecut=    70.00 Ry     beta= 0.70
     Davidson diagonalization with overlap
     ethr =  2.90E-08,  avg # of iterations =  2.0

     total cpu time spent up to now is       10.3 secs

     total energy              =    -500.63886512 Ry
     estimated scf accuracy    <       0.00000023 Ry

     iteration #  6     ecut=    70.00 Ry     beta= 0.70
     Davidson diagonalization with overlap
     ethr =  7.31E-10,  avg # of iterations =  3.2

     total cpu time spent up to now is       10.5 secs

     total energy              =    -500.63886521 Ry
     estimated scf accuracy    <       0.00000033 Ry

     iteration #  7     ecut=    70.00 Ry     beta= 0.70
     Davidson diagonalization with overlap
     ethr =  7.31E-10,  avg # of iterations =  2.0

     total cpu time spent up to now is       10.6 secs

     total energy              =    -500.63886526 Ry
     estimated scf accuracy    <          3.2E-09 Ry

     iteration #  8     ecut=    70.00 Ry     beta= 0.70
     Davidson diagonalization with overlap
     ethr =  9.96E-12,  avg # of iterations =  3.4

     total cpu time spent up to now is       10.8 secs

     total energy              =    -500.63886526 Ry
     estimated scf accuracy    <          1.3E-09 Ry

     iteration #  9     ecut=    70.00 Ry     beta= 0.70
     Davidson diagonalization with overlap
     ethr =  3.92E-12,  avg # of iterations =  2.0

     total cpu time spent up to now is       10.9 secs

     total energy              =    -500.63886526 Ry
     estimated scf accuracy    <          1.2E-10 Ry

     iteration # 10     ecut=    70.00 Ry     beta= 0.70
     Davidson diagonalization with overlap
     ethr =  3.75E-13,  avg # of iterations =  1.7

     total cpu time spent up to now is       11.0 secs

     End of self-consistent calculation

     Number of k-points >= 100: set verbosity='high' to print the bands.

     the Fermi energy is    21.7132 ev

!    total energy              =    -500.63886526 Ry
     estimated scf accuracy    <          4.3E-11 Ry
     smearing contrib. (-TS)   =       0.00006544 Ry
     internal energy E=F+TS    =    -500.63893071 Ry

     The total energy is F=E-TS. E is the sum of the following terms:
     one-electron contribution =    -196.58999923 Ry
     hartree contribution      =     121.08458263 Ry
     xc contribution           =     -57.66072056 Ry
     ewald contribution        =    -367.47279354 Ry

     convergence has been achieved in  10 iterations


     Computing stress (Cartesian axis) and pressure

          total   stress  (Ry/bohr**3)                   (kbar)     P=      -39.50
  -0.00023503   0.00000000   0.00000000          -34.57        0.00        0.00
  -0.00000000  -0.00023240   0.00000000           -0.00      -34.19        0.00
   0.00000000   0.00000000  -0.00033803            0.00        0.00      -49.73

     Energy error            =      3.6E-03 Ry
     Gradient error          =      0.0E+00 Ry/Bohr
     Cell gradient error     =      5.0E+01 kbar

     number of scf cycles    =   3
     number of bfgs steps    =   2

     enthalpy           old  =    -500.6352876185 Ry
     enthalpy           new  =    -500.6388652620 Ry

     CASE: enthalpy          _new < enthalpy          _old

     new trust radius        =       0.0115817989 bohr
     new conv_thr            =            1.0E-10 Ry

     new unit-cell volume =    128.92943 a.u.^3 (    19.10537 Ang^3 )
     density =      9.70751 g/cm^3

CELL_PARAMETERS (angstrom)
   1.203132674  -2.083829791   0.000000000
   1.203132674   2.083829791   0.000000000
   0.000000000   0.000000000   3.810216788

ATOMIC_POSITIONS (crystal)
Fe               0.0000000000        0.0000000000        0.0000000000    0   0   0
Fe               0.6666666667        0.3333333333        0.5000000000    0   0   0



     Writing config-only to output data dir ./out/Fe_hcp.save/ :
     XML data file
     NEW-OLD atomic charge density approx. for the potential
     New effective cutoffs (rho, wfc):  772.80   77.67

     Check: negative core charge=   -0.000032

     total cpu time spent up to now is       11.1 secs

     Self-consistent Calculation

     iteration #  1     ecut=    70.00 Ry     beta= 0.70
     Davidson diagonalization with overlap
     ethr =  1.00E-06,  avg # of iterations =  4.0

     total cpu time spent up to now is       11.3 secs

     total energy              =    -500.63902704 Ry
     estimated scf accuracy    <       0.00008760 Ry

     iteration #  2     ecut=    70.00 Ry     beta= 0.70
     Davidson diagonalization with overlap
     ethr =  2.74E-07,  avg # of iterations =  3.0

     total cpu time spent up to now is       11.5 secs

     total energy              =    -500.63903520 Ry
     estimated scf accuracy    <       0.00023420 Ry

     iteration #  3     ecut=    70.00 Ry     beta= 0.70
     Davidson diagonalization with overlap
     ethr =  2.74E-07,  avg # of iterations =  2.4

     total cpu time spent up to now is       11.7 secs

     total energy              =    -500.63907583 Ry
     estimated scf accuracy    <       0.00000012 Ry

     iteration #  4     ecut=    70.00 Ry     beta= 0.70
     Davidson diagonalization with overlap
     ethr =  3.70E-10,  avg # of iterations =  3.7

     total cpu time spent up to now is       11.8 secs

     total energy              =    -500.63907603 Ry
     estimated scf accuracy    <       0.00000026 Ry

     iteration #  5     ecut=    70.00 Ry     beta= 0.70
     Davidson diagonalization with overlap
     ethr =  3.70E-10,  avg # of iterations =  2.0

     total cpu time spent up to now is       12.0 secs

     total energy              =    -500.63907606 Ry
     estimated scf accuracy    <          7.9E-09 Ry

     iteration #  6     ecut=    70.00 Ry     beta= 0.70
     Davidson diagonalization with overlap
     ethr =  2.45E-11,  avg # of iterations =  3.0

     total cpu time spent up to now is       12.2 secs

     total energy              =    -500.63907607 Ry
     estimated scf accuracy    <          6.3E-09 Ry

     iteration #  7     ecut=    70.00 Ry     beta= 0.70
     Davidson diagonalization with overlap
     ethr =  1.98E-11,  avg # of iterations =  2.0

     total cpu time spent up to now is       12.3 secs

     End of self-consistent calculation

     Number of k-points >= 100: set verbosity='high' to print the bands.

     the Fermi energy is    21.9872 ev

!    total energy              =    -500.63907607 Ry
     estimated scf accuracy    <          8.3E-11 Ry
     smearing contrib. (-TS)   =       0.00005892 Ry
     internal energy E=F+TS    =    -500.63913499 Ry

     The total energy is F=E-TS. E is the sum of the following terms:
     one-electron contribution =    -194.62304806 Ry
     hartree contribution      =     120.41043879 Ry
     xc contribution           =     -57.68396866 Ry
     ewald contribution        =    -368.74255707 Ry

     convergence has been achieved in   7 iterations


     Computing stress (Cartesian axis) and pressure

          total   stress  (Ry/bohr**3)                   (kbar)     P=       -3.66
  -0.00002068   0.00000000   0.00000000           -3.04        0.00        0.00
  -0.00000000  -0.00001989   0.00000000           -0.00       -2.93        0.00
   0.00000000   0.00000000  -0.00003406            0.00        0.00       -5.01

     Energy error            =      2.1E-04 Ry
     Gradient error          =      0.0E+00 Ry/Bohr
     Cell gradient error     =      5.0E+00 kbar

     number of scf cycles    =   4
     number of bfgs steps    =   3

     enthalpy           old  =    -500.6388652620 Ry
     enthalpy           new  =    -500.6390760672 Ry

     CASE: enthalpy          _new < enthalpy          _old

     new trust radius        =       0.0013484112 bohr
     new conv_thr            =            1.0E-10 Ry

     new unit-cell volume =    128.79290 a.u.^3 (    19.08514 Ang^3 )
     density =      9.71780 g/cm^3

CELL_PARAMETERS (angstrom)
   1.202840173  -2.083366352   0.000000000
   1.202840173   2.083366352   0.000000000
   0.000000000   0.000000000   3.807954405

ATOMIC_POSITIONS (crystal)
Fe               0.0000000000        0.0000000000        0.0000000000    0   0   0
Fe               0.6666666667        0.3333333333        0.5000000000    0   0   0



     Writing config-only to output data dir ./out/Fe_hcp.save/ :
     XML data file
     NEW-OLD atomic charge density approx. for the potential
     New effective cutoffs (rho, wfc):  773.62   77.76

     Check: negative core charge=   -0.000032

     total cpu time spent up to now is       12.4 secs

     Self-consistent Calculation

     iteration #  1     ecut=    70.00 Ry     beta= 0.70
     Davidson diagonalization with overlap
     ethr =  1.00E-06,  avg # of iterations =  2.0

     Threshold (ethr) on eigenvalues was too large:
     Diagonalizing with lowered threshold

     Davidson diagonalization with overlap
     ethr =  2.22E-09,  avg # of iterations =  3.2

     total cpu time spent up to now is       12.7 secs

     total energy              =    -500.63907769 Ry
     estimated scf accuracy    <       0.00000094 Ry

     iteration #  2     ecut=    70.00 Ry     beta= 0.70
     Davidson diagonalization with overlap
     ethr =  2.94E-09,  avg # of iterations =  3.0

     total cpu time spent up to now is       12.8 secs

     total energy              =    -500.63907778 Ry
     estimated scf accuracy    <       0.00000250 Ry

     iteration #  3     ecut=    70.00 Ry     beta= 0.70
     Davidson diagonalization with overlap
     ethr =  2.94E-09,  avg # of iterations =  2.4

     total cpu time spent up to now is       13.0 secs

     total energy              =    -500.63907822 Ry
     estimated scf accuracy    <          1.7E-09 Ry

     iteration #  4     ecut=    70.00 Ry     beta= 0.70
     Davidson diagonalization with overlap
     ethr =  5.28E-12,  avg # of iterations =  3.6

     total cpu time spent up to now is       13.2 secs

     total energy              =    -500.63907822 Ry
     estimated scf accuracy    <          2.8E-09 Ry

     iteration #  5     ecut=    70.00 Ry     beta= 0.70
     Davidson diagonalization with overlap
     ethr =  5.28E-12,  avg # of iterations =  2.0

     total cpu time spent up to now is       13.3 secs

     End of self-consistent calculation

     Number of k-points >= 100: set verbosity='high' to print the bands.

     the Fermi energy is    22.0152 ev

!    total energy              =    -500.63907822 Ry
     estimated scf accuracy    <          8.5E-11 Ry
     smearing contrib. (-TS)   =       0.00005819 Ry
     internal energy E=F+TS    =    -500.63913641 Ry

     The total energy is F=E-TS. E is the sum of the following terms:
     one-electron contribution =    -194.42316091 Ry
     hartree contribution      =     120.34200948 Ry
     xc contribution           =     -57.68633094 Ry
     ewald contribution        =    -368.87165404 Ry

     convergence has been achieved in   5 iterations


     Computing stress (Cartesian axis) and pressure

          total   stress  (Ry/bohr**3)                   (kbar)     P=       -0.49
  -0.00000330   0.00000000   0.00000000           -0.48        0.00        0.00
   0.00000000  -0.00000314   0.00000000            0.00       -0.46        0.00
   0.00000000   0.00000000  -0.00000359            0.00        0.00       -0.53

     Energy error            =      2.2E-06 Ry
     Gradient error          =      0.0E+00 Ry/Bohr
     Cell gradient error     =      5.3E-01 kbar

     number of scf cycles    =   5
     number of bfgs steps    =   4

     enthalpy           old  =    -500.6390760672 Ry
     enthalpy           new  =    -500.6390782177 Ry

     CASE: enthalpy          _new < enthalpy          _old

     new trust radius        =       0.0001440792 bohr
     new conv_thr            =            1.0E-10 Ry

     new unit-cell volume =    128.77195 a.u.^3 (    19.08203 Ang^3 )
     density =      9.71938 g/cm^3

CELL_PARAMETERS (angstrom)
   1.202777766  -2.083267912   0.000000000
   1.202777766   2.083267912   0.000000000
   0.000000000   0.000000000   3.807712683

ATOMIC_POSITIONS (crystal)
Fe               0.0000000000        0.0000000000        0.0000000000    0   0   0
Fe               0.6666666667        0.3333333333        0.5000000000    0   0   0



     Writing config-only to output data dir ./out/Fe_hcp.save/ :
     XML data file
     NEW-OLD atomic charge density approx. for the potential
     New effective cutoffs (rho, wfc):  773.71   77.77

     Check: negative core charge=   -0.000032

     total cpu time spent up to now is       13.4 secs

     Self-consistent Calculation

     iteration #  1     ecut=    70.00 Ry     beta= 0.70
     Davidson diagonalization with overlap
     ethr =  1.00E-06,  avg # of iterations =  2.0

     Threshold (ethr) on eigenvalues was too large:
     Diagonalizing with lowered threshold

     Davidson diagonalization with overlap
     ethr =  4.53E-11,  avg # of iterations =  2.0

     total cpu time spent up to now is       13.7 secs

     total energy              =    -500.63907783 Ry
     estimated scf accuracy    <       0.00000001 Ry

     iteration #  2     ecut=    70.00 Ry     beta= 0.70
     Davidson diagonalization with overlap
     ethr =  4.36E-11,  avg # of iterations =  3.0

     total cpu time spent up to now is       13.9 secs

     total energy              =    -500.63907783 Ry
     estimated scf accuracy    <       0.00000004 Ry

     iteration #  3     ecut=    70.00 Ry     beta= 0.70
     Davidson diagonalization with overlap
     ethr =  4.36E-11,  avg # of iterations =  2.4

     total cpu time spent up to now is       14.0 secs

     End of self-consistent calculation

     Number of k-points >= 100: set verbosity='high' to print the bands.

     the Fermi energy is    22.0195 ev

!    total energy              =    -500.63907784 Ry
     estimated scf accuracy    <          2.2E-11 Ry
     smearing contrib. (-TS)   =       0.00005812 Ry
     internal energy E=F+TS    =    -500.63913596 Ry

     The total energy is F=E-TS. E is the sum of the following terms:
     one-electron contribution =    -194.39246500 Ry
     hartree contribution      =     120.33166446 Ry
     xc contribution           =     -57.68673064 Ry
     ewald contribution        =    -368.89160479 Ry

     convergence has been achieved in   3 iterations


     Computing stress (Cartesian axis) and pressure

          total   stress  (Ry/bohr**3)                   (kbar)     P=        0.52
   0.00000342   0.00000000   0.00000000            0.50        0.00        0.00
   0.00000000   0.00000344   0.00000000            0.00        0.51        0.00
   0.00000000   0.00000000   0.00000368            0.00        0.00        0.54

     Energy error            =      3.8E-07 Ry
     Gradient error          =      0.0E+00 Ry/Bohr
     Cell gradient error     =      5.4E-01 kbar

     number of scf cycles    =   6
     number of bfgs steps    =   5

     enthalpy           old  =    -500.6390782177 Ry
     enthalpy           new  =    -500.6390778412 Ry

     CASE: enthalpy          _new > enthalpy          _old

     new trust radius        =       0.0000113531 bohr

     trust_radius < trust_radius_min

     resetting bfgs history

     new conv_thr            =            1.0E-10 Ry

     new unit-cell volume =    128.76064 a.u.^3 (    19.08036 Ang^3 )
     density =      9.72024 g/cm^3

CELL_PARAMETERS (angstrom)
   1.202741041  -2.083202982   0.000000000
   1.202741041   2.083202982   0.000000000
   0.000000000   0.000000000   3.807612971

ATOMIC_POSITIONS (crystal)
Fe               0.0000000000        0.0000000000        0.0000000000    0   0   0
Fe               0.6666666667        0.3333333333        0.5000000000    0   0   0



     Writing config-only to output data dir ./out/Fe_hcp.save/ :
     XML data file
     NEW-OLD atomic charge density approx. for the potential
     New effective cutoffs (rho, wfc):  773.75   77.77

     Check: negative core charge=   -0.000032

     total cpu time spent up to now is       14.1 secs

     Self-consistent Calculation

     iteration #  1     ecut=    70.00 Ry     beta= 0.70
     Davidson diagonalization with overlap
     ethr =  1.00E-06,  avg # of iterations =  2.0

     Threshold (ethr) on eigenvalues was too large:
     Diagonalizing with lowered threshold

     Davidson diagonalization with overlap
     ethr =  2.88E-11,  avg # of iterations =  1.0

     total cpu time spent up to now is       14.4 secs

     total energy              =    -500.63907780 Ry
     estimated scf accuracy    <          9.2E-09 Ry

     iteration #  2     ecut=    70.00 Ry     beta= 0.70
     Davidson diagonalization with overlap
     ethr =  2.88E-11,  avg # of iterations =  3.0

     total cpu time spent up to now is       14.5 secs

     total energy              =    -500.63907780 Ry
     estimated scf accuracy    <       0.00000002 Ry

     iteration #  3     ecut=    70.00 Ry     beta= 0.70
     Davidson diagonalization with overlap
     ethr =  2.88E-11,  avg # of iterations =  2.5

     total cpu time spent up to now is       14.7 secs

     End of self-consistent calculation

     Number of k-points >= 100: set verbosity='high' to print the bands.

     the Fermi energy is    22.0219 ev

!    total energy              =    -500.63907780 Ry
     estimated scf accuracy    <          1.5E-11 Ry
     smearing contrib. (-TS)   =       0.00005809 Ry
     internal energy E=F+TS    =    -500.63913589 Ry

     The total energy is F=E-TS. E is the sum of the following terms:
     one-electron contribution =    -194.37567087 Ry
     hartree contribution      =     120.32588666 Ry
     xc contribution           =     -57.68692464 Ry
     ewald contribution        =    -368.90242704 Ry

     convergence has been achieved in   3 iterations


     Computing stress (Cartesian axis) and pressure

          total   stress  (Ry/bohr**3)                   (kbar)     P=        0.81
   0.00000546  -0.00000000   0.00000000            0.80       -0.00        0.00
  -0.00000000   0.00000549   0.00000000           -0.00        0.81        0.00
   0.00000000   0.00000000   0.00000564            0.00        0.00        0.83

     Energy error            =      4.2E-07 Ry
     Gradient error          =      0.0E+00 Ry/Bohr
     Cell gradient error     =      8.3E-01 kbar

     number of scf cycles    =   7
     number of bfgs steps    =   5

     enthalpy           old  =    -500.6390782177 Ry
     enthalpy           new  =    -500.6390778012 Ry

     CASE: enthalpy          _new > enthalpy          _old

     new trust radius        =       0.0000209624 bohr

     trust_radius < trust_radius_min

     resetting bfgs history

     Message from routine bfgs:
     history already reset at previous step: stopping
     new conv_thr            =            1.0E-10 Ry

     new unit-cell volume =    128.76064 a.u.^3 (    19.08036 Ang^3 )
     density =      9.72024 g/cm^3

CELL_PARAMETERS (angstrom)
   1.202741039  -2.083202977   0.000000000
   1.202741039   2.083202977   0.000000000
   0.000000000   0.000000000   3.807612959

ATOMIC_POSITIONS (crystal)
Fe               0.0000000000        0.0000000000        0.0000000000    0   0   0
Fe               0.6666666667        0.3333333333        0.5000000000    0   0   0



     Writing config-only to output data dir ./out/Fe_hcp.save/ :
     XML data file
     NEW-OLD atomic charge density approx. for the potential
     New effective cutoffs (rho, wfc):  773.75   77.77

     Check: negative core charge=   -0.000032

     total cpu time spent up to now is       14.8 secs

     Self-consistent Calculation

     iteration #  1     ecut=    70.00 Ry     beta= 0.70
     Davidson diagonalization with overlap
     ethr =  1.00E-06,  avg # of iterations =  1.0

     Threshold (ethr) on eigenvalues was too large:
     Diagonalizing with lowered threshold

     Davidson diagonalization with overlap
     ethr =  5.91E-13,  avg # of iterations =  1.7

     total cpu time spent up to now is       15.0 secs

     total energy              =    -500.63907780 Ry
     estimated scf accuracy    <          2.1E-10 Ry

     iteration #  2     ecut=    70.00 Ry     beta= 0.70
     Davidson diagonalization with overlap
     ethr =  6.49E-13,  avg # of iterations =  3.0

     total cpu time spent up to now is       15.2 secs

     total energy              =    -500.63907780 Ry
     estimated scf accuracy    <          5.6E-10 Ry

     iteration #  3     ecut=    70.00 Ry     beta= 0.70
     Davidson diagonalization with overlap
     ethr =  6.49E-13,  avg # of iterations =  2.5

     total cpu time spent up to now is       15.3 secs

     End of self-consistent calculation

     Number of k-points >= 100: set verbosity='high' to print the bands.

     the Fermi energy is    22.0218 ev

!    total energy              =    -500.63907780 Ry
     estimated scf accuracy    <          1.8E-13 Ry
     smearing contrib. (-TS)   =       0.00005809 Ry
     internal energy E=F+TS    =    -500.63913589 Ry

     The total energy is F=E-TS. E is the sum of the following terms:
     one-electron contribution =    -194.37560636 Ry
     hartree contribution      =     120.32581253 Ry
     xc contribution           =     -57.68691412 Ry
     ewald contribution        =    -368.90242794 Ry

     convergence has been achieved in   3 iterations


     Computing stress (Cartesian axis) and pressure

          total   stress  (Ry/bohr**3)                   (kbar)     P=        0.69
   0.00000464   0.00000000   0.00000000            0.68        0.00        0.00
   0.00000000   0.00000468   0.00000000            0.00        0.69        0.00
   0.00000000   0.00000000   0.00000482            0.00        0.00        0.71

     Message from routine bfgs:
     history already reset at previous step: exiting
     Energy error            =      4.2E-07 Ry
     Gradient error          =      0.0E+00 Ry/Bohr
     Cell gradient error     =      7.1E-01 kbar

     bfgs failed after   8 scf cycles and   5 bfgs steps, convergence not achieved
     (criteria: energy <  1.0E-04 Ry, force <  1.0E-03 Ry/Bohr, cell <  5.0E-01 kbar)

     End of BFGS Geometry Optimization

     Final enthalpy           =    -500.6390778012 Ry

     File ./out/Fe_hcp.bfgs deleted, as requested
Begin final coordinates
     new unit-cell volume =    128.76064 a.u.^3 (    19.08036 Ang^3 )
     density =      9.72024 g/cm^3

CELL_PARAMETERS (angstrom)
   1.202741039  -2.083202977   0.000000000
   1.202741039   2.083202977   0.000000000
   0.000000000   0.000000000   3.807612959

ATOMIC_POSITIONS (crystal)
Fe               0.0000000000        0.0000000000        0.0000000000    0   0   0
Fe               0.6666666667        0.3333333333        0.5000000000    0   0   0
End final coordinates



     Writing config-only to output data dir ./out/Fe_hcp.save/ :
     XML data file

     Writing all to output data dir ./out/Fe_hcp.save/ :
     XML data file, charge density, pseudopotentials, collected wavefunctions
 
     init_run     :      0.28s CPU      2.67s WALL (       1 calls)
     electrons    :      9.06s CPU     10.51s WALL (       8 calls)
     update_pot   :      0.05s CPU      0.05s WALL (       7 calls)
     stress       :      0.30s CPU      0.31s WALL (       8 calls)

     Called by init_run:
     wfcinit      :      0.05s CPU      1.06s WALL (       1 calls)
     potinit      :      0.01s CPU      0.31s WALL (       1 calls)
     hinit0       :      0.13s CPU      0.84s WALL (       1 calls)

     Called by electrons:
     c_bands      :      7.19s CPU      7.80s WALL (      58 calls)
     sum_band     :      1.41s CPU      1.58s WALL (      58 calls)
     v_of_rho     :      0.13s CPU      0.31s WALL (      62 calls)
     newd         :      0.15s CPU      0.51s WALL (      62 calls)
     mix_rho      :      0.06s CPU      0.41s WALL (      58 calls)

     Called by c_bands:
     init_us_2    :      0.13s CPU      0.15s WALL (    1375 calls)
     cegterg      :      6.08s CPU      6.47s WALL (     638 calls)

     Called by *egterg:
     cdiaghg      :      0.88s CPU      1.40s WALL (    2141 calls)
     h_psi        :      4.54s CPU      5.39s WALL (    2273 calls)
     s_psi        :      0.08s CPU      0.08s WALL (    2273 calls)
     g_psi        :      0.02s CPU      0.02s WALL (    1624 calls)

     Called by h_psi:
     h_psi:calbec :      0.15s CPU      0.79s WALL (    2273 calls)
     vloc_psi     :      4.27s CPU      4.47s WALL (    2273 calls)
                                        0.00s GPU  (    2273 calls)
     add_vuspsi   :      0.08s CPU      0.09s WALL (    2273 calls)

     General routines
     calbec       :      0.26s CPU      0.90s WALL (    4055 calls)
     fft          :      0.16s CPU      0.79s WALL (     399 calls)
     ffts         :      0.02s CPU      0.10s WALL (     120 calls)
     fftw         :      4.51s CPU      4.71s WALL (   82798 calls)
     interpolate  :      0.04s CPU      0.17s WALL (      62 calls)
     davcio       :      0.00s CPU      0.00s WALL (      11 calls)
 
     Parallel routines
 
     PWSCF        :     11.63s CPU     22.84s WALL

 
   This run was terminated on:  17:53:34  10Jul2025            

=------------------------------------------------------------------------------=
   JOB DONE.
=------------------------------------------------------------------------------=
