
     Program PWSCF v.7.1 starts on 11Jun2026 at  3:51:48 

     This program is part of the open-source Quantum ESPRESSO suite
     for quantum simulation of materials; please cite
         "P. Giannozzi et al., J. Phys.:Condens. Matter 21 395502 (2009);
         "P. Giannozzi et al., J. Phys.:Condens. Matter 29 465901 (2017);
         "P. Giannozzi et al., J. Chem. Phys. 152 154105 (2020);
          URL http://www.quantum-espresso.org", 
     in publications or presentations arising from this work. More details at
     http://www.quantum-espresso.org/quote

     Parallel version (MPI & OpenMP), running on       7 processor cores
     Number of MPI processes:                 7
     Threads/MPI process:                     1

     MPI processes distributed on     7 nodes
     223066 MiB available memory on the printing compute node when the environment starts
 
     Waiting for input...
     Reading input from standard input
Warning: card &CELL ignored
Warning: card / ignored
Warning: card &FCP ignored
Warning: card / ignored
Warning: card &RISM ignored
Warning: card / ignored

     Current dimensions of program PWSCF are:
     Max number of different atomic species (ntypx) = 10
     Max number of k-points (npk) =  40000
     Max angular momentum in pseudopotentials (lmaxx) =  4

     IMPORTANT: XC functional enforced from input :
     Exchange-correlation= VDW-DF2-B86R
                           (   1   4  26   0   2   0   0)
     Any further DFT definition will be discarded
     Please, verify this is what you really want

     Message from routine setup:
     using ibrav=0 with symmetry is DISCOURAGED, use correct ibrav instead
 
     R & G space division:  proc/nbgrp/npool/nimage =       7
     Subspace diagonalization in iterative solution of the eigenvalue problem:
     a serial algorithm will be used

 
     Parallelization info
     --------------------
     sticks:   dense  smooth     PW     G-vecs:    dense   smooth      PW
     Min          85      34     12                 9603     2426     462
     Max          85      35     13                 9621     2443     473
     Sum         595     241     85                67255    17039    3265
 
     Using Slab Decomposition
 


     bravais-lattice index     =            0
     lattice parameter (alat)  =       4.6633  a.u.
     unit-cell volume          =     498.2497 (a.u.)^3
     number of atoms/cell      =            4
     number of atomic types    =            1
     number of electrons       =        16.00
     number of Kohn-Sham states=           12
     kinetic-energy cutoff     =      40.0000  Ry
     charge density cutoff     =     400.0000  Ry
     scf convergence threshold =      1.0E-08
     mixing beta               =       0.3000
     number of iterations used =            8  plain     mixing
     Exchange-correlation= VDW-DF2-B86R
                           (   1   4  26   0   2   0   0)

     celldm(1)=   4.663315  celldm(2)=   0.000000  celldm(3)=   0.000000
     celldm(4)=   0.000000  celldm(5)=   0.000000  celldm(6)=   0.000000

     crystal axes: (cart. coord. in units of alat)
               a(1) = (   1.000000   0.000000   0.000000 )  
               a(2) = (  -0.500000   0.866025   0.000000 )  
               a(3) = (   0.000000   0.000000   5.673253 )  

     reciprocal axes: (cart. coord. in units 2 pi/alat)
               b(1) = (  1.000000  0.577350  0.000000 )  
               b(2) = (  0.000000  1.154701  0.000000 )  
               b(3) = (  0.000000  0.000000  0.176266 )  


     PseudoPot. # 1 for C  read from file:
     /home/k0750/k075000/PSPOT/c_pbe_v1.2.uspp.F.UPF
     MD5 check sum: d1aef80898a10debaa0f26306b886e00
     Pseudo is Ultrasoft + core correction, Zval =  4.0
     Generated by new atomic code, or converted to UPF format
     Using radial grid of  721 points,  4 beta functions with: 
                l(1) =   0
                l(2) =   0
                l(3) =   1
                l(4) =   1
     Q(r) pseudized with  8 coefficients,  rinner =    1.100   1.100   1.100


     atomic species   valence    mass     pseudopotential
        C              4.00    12.01100     C ( 1.00)

      8 Sym. Ops., with inversion, found ( 4 have fractional translation)



   Cartesian axes

     site n.     atom                  positions (alat units)
         1           C   tau(   1) = (   0.0000000   0.0000000   4.2549398  )
         2           C   tau(   2) = (   0.0000000   0.0000000   1.4183133  )
         3           C   tau(   3) = (  -0.0000050   0.5773532   4.2549398  )
         4           C   tau(   4) = (   0.5000050   0.2886722   1.4183133  )

     number of k points=   215  Marzari-Vanderbilt smearing, width (Ry)=  0.0100

     Number of k-points >= 100: set verbosity='high' to print them.

     Dense  grid:    67255 G-vectors     FFT dimensions: (  30,  30, 180)

     Smooth grid:    17039 G-vectors     FFT dimensions: (  20,  20, 108)

     Estimated max dynamical RAM per process >      26.04 MB

     Estimated total dynamical RAM >     182.28 MB

     Initial potential from superposition of free atoms

     starting charge      15.9998, renormalised to      16.0000


     %%%%%%%%%%%%%%%%%%%%%%%%%%%%%%%%%%%%%%%%%%%%%%%%%%%%%%%%%%%%%%%%%%%%%%%%
     %                                                                      %
     % You are using vdW-DF, which was implemented by the Thonhauser group. %
     % Please cite the following two papers that made this development      %
     % possible and the two reviews that describe the various versions:     %
     %                                                                      %
     %   T. Thonhauser et al., PRL 115, 136402 (2015).                      %
     %   T. Thonhauser et al., PRB 76, 125112 (2007).                       %
     %   K. Berland et al., Rep. Prog. Phys. 78, 066501 (2015).             %
     %   D.C. Langreth et al., J. Phys.: Condens. Matter 21, 084203 (2009). %
     %                                                                      %
     % If you are calculating stress with vdW-DF, please also cite:         %
     %                                                                      %
     %   R. Sabatini et al., J. Phys.: Condens. Matter 24, 424209 (2012).   %
     %                                                                      %
     %%%%%%%%%%%%%%%%%%%%%%%%%%%%%%%%%%%%%%%%%%%%%%%%%%%%%%%%%%%%%%%%%%%%%%%%

     %%%%%%%%%%%%%%%%%%%%%%%%%%%%%%%%%%%%%%%%%%%%%%%%%%%%%%%%%%%%%%%%%%%%%%%%
     %                                                                      %
     %  vdW-DF NEWS:                                                        %
     %                                                                      %
     %  * vdW-DF3 is now available. DOI: 10.1021/acs.jctc.0c00471           %
     %    use with input_dft = 'vdW-DF3-opt1' or 'vdW-DF3-opt2'             %
     %                                                                      %
     %  * Unscreened and range-separated vdW-DF hybrid functionals          %
     %    DOI: 10.1063/1.4986522 and 10.1088/1361-648X/ac2ad2               %
     %    use with input_dft = 'vdW-DF-cx0' (etc) and 'vdW-DF-ahcx'         %
     %                                                                      %
     %%%%%%%%%%%%%%%%%%%%%%%%%%%%%%%%%%%%%%%%%%%%%%%%%%%%%%%%%%%%%%%%%%%%%%%%


     Starting wfcs are   16 randomized atomic wfcs

     total cpu time spent up to now is       13.8 secs

     Self-consistent Calculation

     iteration #  1     ecut=    40.00 Ry     beta= 0.30
     Davidson diagonalization with overlap
     ethr =  1.00E-02,  avg # of iterations =  2.5

     total cpu time spent up to now is       15.8 secs

     total energy              =     -46.03347045 Ry
     estimated scf accuracy    <       0.38414390 Ry

     iteration #  2     ecut=    40.00 Ry     beta= 0.30
     Davidson diagonalization with overlap
     ethr =  2.40E-03,  avg # of iterations =  2.1

     total cpu time spent up to now is       17.5 secs

     total energy              =     -45.96074706 Ry
     estimated scf accuracy    <       0.13882017 Ry

     iteration #  3     ecut=    40.00 Ry     beta= 0.30
     Davidson diagonalization with overlap
     ethr =  8.68E-04,  avg # of iterations =  4.3

     total cpu time spent up to now is       19.6 secs

     total energy              =     -45.98858814 Ry
     estimated scf accuracy    <       0.00423494 Ry

     iteration #  4     ecut=    40.00 Ry     beta= 0.30
     Davidson diagonalization with overlap
     ethr =  2.65E-05,  avg # of iterations =  8.2

     negative rho (up, down):  6.896E-08 0.000E+00

     total cpu time spent up to now is       22.3 secs

     total energy              =     -45.98468036 Ry
     estimated scf accuracy    <       0.01308241 Ry

     iteration #  5     ecut=    40.00 Ry     beta= 0.30
     Davidson diagonalization with overlap
     ethr =  2.65E-05,  avg # of iterations =  3.6

     negative rho (up, down):  9.529E-08 0.000E+00

     total cpu time spent up to now is       24.2 secs

     total energy              =     -45.98694679 Ry
     estimated scf accuracy    <       0.00000830 Ry

     iteration #  6     ecut=    40.00 Ry     beta= 0.30
     Davidson diagonalization with overlap
     ethr =  5.19E-08,  avg # of iterations =  4.4

     negative rho (up, down):  1.198E-07 0.000E+00

     total cpu time spent up to now is       26.3 secs

     total energy              =     -45.98695409 Ry
     estimated scf accuracy    <       0.00000099 Ry

     iteration #  7     ecut=    40.00 Ry     beta= 0.30
     Davidson diagonalization with overlap
     ethr =  6.21E-09,  avg # of iterations =  2.0

     negative rho (up, down):  1.383E-07 0.000E+00

     total cpu time spent up to now is       27.9 secs

     total energy              =     -45.98695491 Ry
     estimated scf accuracy    <       0.00000074 Ry

     iteration #  8     ecut=    40.00 Ry     beta= 0.30
     Davidson diagonalization with overlap
     ethr =  4.62E-09,  avg # of iterations =  1.1

     negative rho (up, down):  1.605E-07 0.000E+00

     total cpu time spent up to now is       29.2 secs

     total energy              =     -45.98695524 Ry
     estimated scf accuracy    <       0.00000015 Ry

     iteration #  9     ecut=    40.00 Ry     beta= 0.30
     Davidson diagonalization with overlap
     ethr =  9.18E-10,  avg # of iterations =  2.0

     negative rho (up, down):  2.432E-07 0.000E+00

     total cpu time spent up to now is       30.9 secs

     End of self-consistent calculation

     Number of k-points >= 100: set verbosity='high' to print the bands.

     the Fermi energy is     1.0767 ev

!    total energy              =     -45.98695552 Ry
     estimated scf accuracy    <          4.2E-09 Ry
     smearing contrib. (-TS)   =      -0.00018232 Ry
     internal energy E=F+TS    =     -45.98677320 Ry

     The total energy is F=E-TS. E is the sum of the following terms:
     one-electron contribution =    -102.05759603 Ry
     hartree contribution      =      55.45876699 Ry
     xc contribution           =     -14.54561221 Ry
     ewald contribution        =      15.15766805 Ry

     convergence has been achieved in   9 iterations

     negative rho (up, down):  2.432E-07 0.000E+00

     Forces acting on atoms (cartesian axes, Ry/au):

     atom    1 type  1   force =    -0.00002008    0.00001159    0.00000000
     atom    2 type  1   force =     0.00002008   -0.00001159    0.00000000
     atom    3 type  1   force =     0.00002010   -0.00001160    0.00000000
     atom    4 type  1   force =    -0.00002010    0.00001160    0.00000000

     Total force =     0.000046     Total SCF correction =     0.000000


     Computing stress (Cartesian axis) and pressure


     negative rho (up, down):  2.432E-07 0.000E+00
          total   stress  (Ry/bohr**3)                   (kbar)     P=       -5.16
  -0.00004383   0.00000000   0.00000000           -6.45        0.00        0.00
   0.00000000  -0.00004383   0.00000000            0.00       -6.45        0.00
   0.00000000   0.00000000  -0.00001760            0.00        0.00       -2.59


     Writing all to output data dir ./tmp/graphite_d_7p00000.save/
 
     init_run     :     13.52s CPU     13.77s WALL (       1 calls)
     electrons    :     16.07s CPU     17.12s WALL (       1 calls)
     forces       :      0.18s CPU      0.18s WALL (       1 calls)
     stress       :      0.47s CPU      0.53s WALL (       1 calls)

     Called by init_run:
     wfcinit      :      0.65s CPU      0.71s WALL (       1 calls)
     potinit      :     12.77s CPU     12.90s WALL (       1 calls)
     hinit0       :      0.03s CPU      0.08s WALL (       1 calls)

     Called by electrons:
     c_bands      :     13.17s CPU     13.72s WALL (       9 calls)
     sum_band     :      2.12s CPU      2.26s WALL (       9 calls)
     v_of_rho     :     13.48s CPU     13.92s WALL (      10 calls)
     newd         :      0.04s CPU      0.05s WALL (      10 calls)
     mix_rho      :      0.01s CPU      0.01s WALL (       9 calls)
     vdW_kernel   :     12.66s CPU     12.70s WALL (       1 calls)

     Called by c_bands:
     init_us_2    :      0.17s CPU      0.17s WALL (    4515 calls)
     init_us_2:cp :      0.16s CPU      0.17s WALL (    4515 calls)
     cegterg      :     12.54s CPU     12.90s WALL (    1935 calls)

     Called by *egterg:
     cdiaghg      :      1.07s CPU      1.09s WALL (    8433 calls)
     h_psi        :     10.31s CPU     10.65s WALL (    8648 calls)
     s_psi        :      0.21s CPU      0.22s WALL (    8648 calls)
     g_psi        :      0.05s CPU      0.05s WALL (    6498 calls)

     Called by h_psi:
     h_psi:calbec :      0.49s CPU      0.51s WALL (    8648 calls)
     vloc_psi     :      9.55s CPU      9.87s WALL (    8648 calls)
     add_vuspsi   :      0.22s CPU      0.23s WALL (    8648 calls)

     General routines
     calbec       :      0.70s CPU      0.72s WALL (   11658 calls)
     fft          :      0.77s CPU      1.28s WALL (     797 calls)
     ffts         :      0.01s CPU      0.01s WALL (      19 calls)
     fftw         :     10.47s CPU     10.81s WALL (  162752 calls)
     interpolate  :      0.01s CPU      0.01s WALL (      10 calls)
 
     Parallel routines
 
     PWSCF        :     30.88s CPU     32.92s WALL

 
   This run was terminated on:   3:52:21  11Jun2026            

=------------------------------------------------------------------------------=
   JOB DONE.
=------------------------------------------------------------------------------=
