
     Program PWSCF v.7.1 starts on 11Jun2026 at  3:35:19 

     This program is part of the open-source Quantum ESPRESSO suite
     for quantum simulation of materials; please cite
         "P. Giannozzi et al., J. Phys.:Condens. Matter 21 395502 (2009);
         "P. Giannozzi et al., J. Phys.:Condens. Matter 29 465901 (2017);
         "P. Giannozzi et al., J. Chem. Phys. 152 154105 (2020);
          URL http://www.quantum-espresso.org", 
     in publications or presentations arising from this work. More details at
     http://www.quantum-espresso.org/quote

     Parallel version (MPI & OpenMP), running on       7 processor cores
     Number of MPI processes:                 7
     Threads/MPI process:                     1

     MPI processes distributed on     7 nodes
     223711 MiB available memory on the printing compute node when the environment starts
 
     Waiting for input...
     Reading input from standard input
Warning: card &CELL ignored
Warning: card / ignored
Warning: card &FCP ignored
Warning: card / ignored
Warning: card &RISM ignored
Warning: card / ignored

     Current dimensions of program PWSCF are:
     Max number of different atomic species (ntypx) = 10
     Max number of k-points (npk) =  40000
     Max angular momentum in pseudopotentials (lmaxx) =  4
     Message from routine setup:
     using ibrav=0 with symmetry is DISCOURAGED, use correct ibrav instead
 
     R & G space division:  proc/nbgrp/npool/nimage =       7
     Subspace diagonalization in iterative solution of the eigenvalue problem:
     a serial algorithm will be used

 
     Parallelization info
     --------------------
     sticks:   dense  smooth     PW     G-vecs:    dense   smooth      PW
     Min          85      34     12                 4395     1118     208
     Max          85      35     13                 4403     1125     213
     Sum         595     241     85                30779     7849    1467
 
     Using Slab Decomposition
 


     bravais-lattice index     =            0
     lattice parameter (alat)  =       4.6633  a.u.
     unit-cell volume          =     227.7713 (a.u.)^3
     number of atoms/cell      =            4
     number of atomic types    =            1
     number of electrons       =        16.00
     number of Kohn-Sham states=           12
     kinetic-energy cutoff     =      40.0000  Ry
     charge density cutoff     =     400.0000  Ry
     scf convergence threshold =      1.0E-08
     mixing beta               =       0.3000
     number of iterations used =            8  plain     mixing
     Exchange-correlation= SLA  PW   PBE  PBE
                           (   1   4   3   4   0   0   0)

     celldm(1)=   4.663315  celldm(2)=   0.000000  celldm(3)=   0.000000
     celldm(4)=   0.000000  celldm(5)=   0.000000  celldm(6)=   0.000000

     crystal axes: (cart. coord. in units of alat)
               a(1) = (   1.000000   0.000000   0.000000 )  
               a(2) = (  -0.500000   0.866025   0.000000 )  
               a(3) = (   0.000000   0.000000   2.593487 )  

     reciprocal axes: (cart. coord. in units 2 pi/alat)
               b(1) = (  1.000000  0.577350  0.000000 )  
               b(2) = (  0.000000  1.154701  0.000000 )  
               b(3) = (  0.000000  0.000000  0.385581 )  


     PseudoPot. # 1 for C  read from file:
     /home/k0750/k075000/PSPOT/c_pbe_v1.2.uspp.F.UPF
     MD5 check sum: d1aef80898a10debaa0f26306b886e00
     Pseudo is Ultrasoft + core correction, Zval =  4.0
     Generated by new atomic code, or converted to UPF format
     Using radial grid of  721 points,  4 beta functions with: 
                l(1) =   0
                l(2) =   0
                l(3) =   1
                l(4) =   1
     Q(r) pseudized with  8 coefficients,  rinner =    1.100   1.100   1.100


     atomic species   valence    mass     pseudopotential
        C              4.00    12.01100     C ( 1.00)

      8 Sym. Ops., with inversion, found ( 4 have fractional translation)



   Cartesian axes

     site n.     atom                  positions (alat units)
         1           C   tau(   1) = (   0.0000000   0.0000000   1.9451153  )
         2           C   tau(   2) = (   0.0000000   0.0000000   0.6483718  )
         3           C   tau(   3) = (  -0.0000050   0.5773532   1.9451153  )
         4           C   tau(   4) = (   0.5000050   0.2886722   0.6483718  )

     number of k points=   215  Marzari-Vanderbilt smearing, width (Ry)=  0.0100

     Number of k-points >= 100: set verbosity='high' to print them.

     Dense  grid:    30779 G-vectors     FFT dimensions: (  30,  30,  80)

     Smooth grid:     7849 G-vectors     FFT dimensions: (  20,  20,  50)

     Estimated max dynamical RAM per process >      12.17 MB

     Estimated total dynamical RAM >      85.18 MB

     Initial potential from superposition of free atoms

     starting charge      15.9998, renormalised to      16.0000
     Starting wfcs are   16 randomized atomic wfcs

     total cpu time spent up to now is        0.5 secs

     Self-consistent Calculation

     iteration #  1     ecut=    40.00 Ry     beta= 0.30
     Davidson diagonalization with overlap
     ethr =  1.00E-02,  avg # of iterations =  2.7

     total cpu time spent up to now is        1.7 secs

     total energy              =     -45.99877723 Ry
     estimated scf accuracy    <       0.35679929 Ry

     iteration #  2     ecut=    40.00 Ry     beta= 0.30
     Davidson diagonalization with overlap
     ethr =  2.23E-03,  avg # of iterations =  1.1

     total cpu time spent up to now is        2.5 secs

     total energy              =     -45.93274967 Ry
     estimated scf accuracy    <       0.13039783 Ry

     iteration #  3     ecut=    40.00 Ry     beta= 0.30
     Davidson diagonalization with overlap
     ethr =  8.15E-04,  avg # of iterations =  3.9

     total cpu time spent up to now is        3.7 secs

     total energy              =     -45.95370342 Ry
     estimated scf accuracy    <       0.00243946 Ry

     iteration #  4     ecut=    40.00 Ry     beta= 0.30
     Davidson diagonalization with overlap
     ethr =  1.52E-05,  avg # of iterations =  5.1

     total cpu time spent up to now is        5.0 secs

     total energy              =     -45.95301304 Ry
     estimated scf accuracy    <       0.00330271 Ry

     iteration #  5     ecut=    40.00 Ry     beta= 0.30
     Davidson diagonalization with overlap
     ethr =  1.52E-05,  avg # of iterations =  2.6

     total cpu time spent up to now is        6.0 secs

     total energy              =     -45.95350719 Ry
     estimated scf accuracy    <       0.00000757 Ry

     iteration #  6     ecut=    40.00 Ry     beta= 0.30
     Davidson diagonalization with overlap
     ethr =  4.73E-08,  avg # of iterations =  3.4

     total cpu time spent up to now is        7.1 secs

     total energy              =     -45.95350802 Ry
     estimated scf accuracy    <       0.00000373 Ry

     iteration #  7     ecut=    40.00 Ry     beta= 0.30
     Davidson diagonalization with overlap
     ethr =  2.33E-08,  avg # of iterations =  2.0

     total cpu time spent up to now is        8.0 secs

     total energy              =     -45.95350875 Ry
     estimated scf accuracy    <       0.00000002 Ry

     iteration #  8     ecut=    40.00 Ry     beta= 0.30
     Davidson diagonalization with overlap
     ethr =  9.73E-11,  avg # of iterations =  2.8

     total cpu time spent up to now is        9.0 secs

     total energy              =     -45.95350885 Ry
     estimated scf accuracy    <       0.00000001 Ry

     iteration #  9     ecut=    40.00 Ry     beta= 0.30
     Davidson diagonalization with overlap
     ethr =  9.35E-11,  avg # of iterations =  1.0

     total cpu time spent up to now is        9.8 secs

     total energy              =     -45.95350889 Ry
     estimated scf accuracy    <       0.00000001 Ry

     iteration # 10     ecut=    40.00 Ry     beta= 0.30
     Davidson diagonalization with overlap
     ethr =  8.17E-11,  avg # of iterations =  2.0

     total cpu time spent up to now is       10.7 secs

     End of self-consistent calculation

     Number of k-points >= 100: set verbosity='high' to print the bands.

     the Fermi energy is     7.5123 ev

!    total energy              =     -45.95350894 Ry
     estimated scf accuracy    <          1.3E-10 Ry
     smearing contrib. (-TS)   =      -0.00009638 Ry
     internal energy E=F+TS    =     -45.95341255 Ry

     The total energy is F=E-TS. E is the sum of the following terms:
     one-electron contribution =      -7.43743146 Ry
     hartree contribution      =      11.98791338 Ry
     xc contribution           =     -14.54878393 Ry
     ewald contribution        =     -35.95511054 Ry

     convergence has been achieved in  10 iterations

     Forces acting on atoms (cartesian axes, Ry/au):

     atom    1 type  1   force =    -0.00002480    0.00001432    0.00000000
     atom    2 type  1   force =     0.00002480   -0.00001432    0.00000000
     atom    3 type  1   force =     0.00002483   -0.00001433    0.00000000
     atom    4 type  1   force =    -0.00002483    0.00001433    0.00000000

     Total force =     0.000057     Total SCF correction =     0.000000


     Computing stress (Cartesian axis) and pressure

          total   stress  (Ry/bohr**3)                   (kbar)     P=        8.06
  -0.00010906  -0.00000008   0.00000000          -16.04       -0.01        0.00
  -0.00000008  -0.00010915   0.00000000           -0.01      -16.06        0.00
   0.00000000   0.00000000   0.00038252            0.00        0.00       56.27


     Writing all to output data dir ./tmp/graphite_d_3p20000.save/
 
     init_run     :      0.42s CPU      0.49s WALL (       1 calls)
     electrons    :      9.54s CPU     10.21s WALL (       1 calls)
     forces       :      0.09s CPU      0.09s WALL (       1 calls)
     stress       :      0.16s CPU      0.16s WALL (       1 calls)

     Called by init_run:
     wfcinit      :      0.36s CPU      0.37s WALL (       1 calls)
     potinit      :      0.01s CPU      0.03s WALL (       1 calls)
     hinit0       :      0.03s CPU      0.06s WALL (       1 calls)

     Called by electrons:
     c_bands      :      8.19s CPU      8.76s WALL (      10 calls)
     sum_band     :      1.27s CPU      1.33s WALL (      10 calls)
     v_of_rho     :      0.04s CPU      0.07s WALL (      11 calls)
     newd         :      0.02s CPU      0.02s WALL (      11 calls)
     mix_rho      :      0.01s CPU      0.01s WALL (      10 calls)

     Called by c_bands:
     init_us_2    :      0.10s CPU      0.10s WALL (    4945 calls)
     init_us_2:cp :      0.09s CPU      0.10s WALL (    4945 calls)
     cegterg      :      7.78s CPU      8.14s WALL (    2150 calls)

     Called by *egterg:
     cdiaghg      :      0.98s CPU      1.02s WALL (    7862 calls)
     h_psi        :      5.98s CPU      6.27s WALL (    8077 calls)
     s_psi        :      0.12s CPU      0.12s WALL (    8077 calls)
     g_psi        :      0.03s CPU      0.03s WALL (    5712 calls)

     Called by h_psi:
     h_psi:calbec :      0.37s CPU      0.38s WALL (    8077 calls)
     vloc_psi     :      5.45s CPU      5.72s WALL (    8077 calls)
     add_vuspsi   :      0.12s CPU      0.13s WALL (    8077 calls)

     General routines
     calbec       :      0.52s CPU      0.54s WALL (   11302 calls)
     fft          :      0.05s CPU      0.12s WALL (     166 calls)
     ffts         :      0.00s CPU      0.01s WALL (      21 calls)
     fftw         :      6.02s CPU      6.30s WALL (  169036 calls)
     interpolate  :      0.00s CPU      0.01s WALL (      11 calls)
 
     Parallel routines
 
     PWSCF        :     10.66s CPU     12.65s WALL

 
   This run was terminated on:   3:35:32  11Jun2026            

=------------------------------------------------------------------------------=
   JOB DONE.
=------------------------------------------------------------------------------=
