
     Program PWSCF v.7.1 starts on 11Jun2026 at  3:34:14 

     This program is part of the open-source Quantum ESPRESSO suite
     for quantum simulation of materials; please cite
         "P. Giannozzi et al., J. Phys.:Condens. Matter 21 395502 (2009);
         "P. Giannozzi et al., J. Phys.:Condens. Matter 29 465901 (2017);
         "P. Giannozzi et al., J. Chem. Phys. 152 154105 (2020);
          URL http://www.quantum-espresso.org", 
     in publications or presentations arising from this work. More details at
     http://www.quantum-espresso.org/quote

     Parallel version (MPI & OpenMP), running on       7 processor cores
     Number of MPI processes:                 7
     Threads/MPI process:                     1

     MPI processes distributed on     7 nodes
     223991 MiB available memory on the printing compute node when the environment starts
 
     Waiting for input...
     Reading input from standard input
Warning: card &CELL ignored
Warning: card / ignored
Warning: card &FCP ignored
Warning: card / ignored
Warning: card &RISM ignored
Warning: card / ignored

     Current dimensions of program PWSCF are:
     Max number of different atomic species (ntypx) = 10
     Max number of k-points (npk) =  40000
     Max angular momentum in pseudopotentials (lmaxx) =  4
     Message from routine setup:
     using ibrav=0 with symmetry is DISCOURAGED, use correct ibrav instead
 
     R & G space division:  proc/nbgrp/npool/nimage =       7
     Subspace diagonalization in iterative solution of the eigenvalue problem:
     a serial algorithm will be used

 
     Parallelization info
     --------------------
     sticks:   dense  smooth     PW     G-vecs:    dense   smooth      PW
     Min          85      34     12                20583     5216     978
     Max          85      35     13                20621     5251     999
     Sum         595     241     85               144163    36613    6911
 
     Using Slab Decomposition
 


     bravais-lattice index     =            0
     lattice parameter (alat)  =       4.6633  a.u.
     unit-cell volume          =    1067.6779 (a.u.)^3
     number of atoms/cell      =            2
     number of atomic types    =            1
     number of electrons       =         8.00
     number of Kohn-Sham states=            8
     kinetic-energy cutoff     =      40.0000  Ry
     charge density cutoff     =     400.0000  Ry
     scf convergence threshold =      1.0E-08
     mixing beta               =       0.3000
     number of iterations used =            8  plain     mixing
     Exchange-correlation= SLA  PW   PBE  PBE
                           (   1   4   3   4   0   0   0)

     celldm(1)=   4.663315  celldm(2)=   0.000000  celldm(3)=   0.000000
     celldm(4)=   0.000000  celldm(5)=   0.000000  celldm(6)=   0.000000

     crystal axes: (cart. coord. in units of alat)
               a(1) = (   1.000000   0.000000   0.000000 )  
               a(2) = (  -0.500000   0.866025   0.000000 )  
               a(3) = (   0.000000   0.000000  12.156971 )  

     reciprocal axes: (cart. coord. in units 2 pi/alat)
               b(1) = (  1.000000  0.577350  0.000000 )  
               b(2) = (  0.000000  1.154701  0.000000 )  
               b(3) = (  0.000000  0.000000  0.082257 )  


     PseudoPot. # 1 for C  read from file:
     /home/k0750/k075000/PSPOT/c_pbe_v1.2.uspp.F.UPF
     MD5 check sum: d1aef80898a10debaa0f26306b886e00
     Pseudo is Ultrasoft + core correction, Zval =  4.0
     Generated by new atomic code, or converted to UPF format
     Using radial grid of  721 points,  4 beta functions with: 
                l(1) =   0
                l(2) =   0
                l(3) =   1
                l(4) =   1
     Q(r) pseudized with  8 coefficients,  rinner =    1.100   1.100   1.100


     atomic species   valence    mass     pseudopotential
        C              4.00    12.01100     C ( 1.00)

     12 Sym. Ops. (no inversion) found



   Cartesian axes

     site n.     atom                  positions (alat units)
         1           C   tau(   1) = (   0.0000000   0.0000000   6.0784854  )
         2           C   tau(   2) = (  -0.0000050   0.5773532   6.0784854  )

     number of k points=    19  Marzari-Vanderbilt smearing, width (Ry)=  0.0100
                       cart. coord. in units 2pi/alat
        k(    1) = (   0.0000000   0.0000000   0.0000000), wk =   0.0138889
        k(    2) = (   0.0000000   0.0962250   0.0000000), wk =   0.0833333
        k(    3) = (   0.0000000   0.1924501   0.0000000), wk =   0.0833333
        k(    4) = (   0.0000000   0.2886751   0.0000000), wk =   0.0833333
        k(    5) = (   0.0000000   0.3849002   0.0000000), wk =   0.0833333
        k(    6) = (   0.0000000   0.4811252   0.0000000), wk =   0.0833333
        k(    7) = (   0.0000000  -0.5773503   0.0000000), wk =   0.0416667
        k(    8) = (   0.0833333   0.1443376   0.0000000), wk =   0.0833333
        k(    9) = (   0.0833333   0.2405626   0.0000000), wk =   0.1666667
        k(   10) = (   0.0833333   0.3367877   0.0000000), wk =   0.1666667
        k(   11) = (   0.0833333   0.4330127   0.0000000), wk =   0.1666667
        k(   12) = (   0.0833333   0.5292377   0.0000000), wk =   0.1666667
        k(   13) = (   0.1666667   0.2886751   0.0000000), wk =   0.0833333
        k(   14) = (   0.1666667   0.3849002   0.0000000), wk =   0.1666667
        k(   15) = (   0.1666667   0.4811252   0.0000000), wk =   0.1666667
        k(   16) = (   0.1666667   0.5773503   0.0000000), wk =   0.0833333
        k(   17) = (   0.2500000   0.4330127   0.0000000), wk =   0.0833333
        k(   18) = (   0.2500000   0.5292377   0.0000000), wk =   0.1666667
        k(   19) = (   0.3333333   0.5773503   0.0000000), wk =   0.0277778

     Dense  grid:   144163 G-vectors     FFT dimensions: (  30,  30, 375)

     Smooth grid:    36613 G-vectors     FFT dimensions: (  20,  20, 240)

     Estimated max dynamical RAM per process >      29.69 MB

     Estimated total dynamical RAM >     207.84 MB

     Initial potential from superposition of free atoms

     starting charge       7.9999, renormalised to       8.0000

     negative rho (up, down):  2.654E-05 0.000E+00
     Starting wfcs are    8 randomized atomic wfcs

     total cpu time spent up to now is        0.7 secs

     Self-consistent Calculation

     iteration #  1     ecut=    40.00 Ry     beta= 0.30
     Davidson diagonalization with overlap
     ethr =  1.00E-02,  avg # of iterations =  5.6

     negative rho (up, down):  6.539E-05 0.000E+00

     total cpu time spent up to now is        1.0 secs

     total energy              =     -23.00395422 Ry
     estimated scf accuracy    <       0.19371212 Ry

     iteration #  2     ecut=    40.00 Ry     beta= 0.30
     Davidson diagonalization with overlap
     ethr =  2.42E-03,  avg # of iterations =  1.8

     negative rho (up, down):  2.354E-04 0.000E+00

     total cpu time spent up to now is        1.3 secs

     total energy              =     -22.96883184 Ry
     estimated scf accuracy    <       0.06799629 Ry

     iteration #  3     ecut=    40.00 Ry     beta= 0.30
     Davidson diagonalization with overlap
     ethr =  8.50E-04,  avg # of iterations =  7.5

     negative rho (up, down):  2.511E-04 0.000E+00

     total cpu time spent up to now is        1.6 secs

     total energy              =     -22.98119035 Ry
     estimated scf accuracy    <       0.00148481 Ry

     iteration #  4     ecut=    40.00 Ry     beta= 0.30
     Davidson diagonalization with overlap
     c_bands:  1 eigenvalues not converged
     ethr =  1.86E-05,  avg # of iterations = 11.2

     negative rho (up, down):  2.706E-04 0.000E+00

     total cpu time spent up to now is        2.0 secs

     total energy              =     -22.97988950 Ry
     estimated scf accuracy    <       0.00440266 Ry

     iteration #  5     ecut=    40.00 Ry     beta= 0.30
     Davidson diagonalization with overlap
     ethr =  1.86E-05,  avg # of iterations =  2.8

     negative rho (up, down):  2.745E-04 0.000E+00

     total cpu time spent up to now is        2.2 secs

     total energy              =     -22.98052668 Ry
     estimated scf accuracy    <       0.00001037 Ry

     iteration #  6     ecut=    40.00 Ry     beta= 0.30
     Davidson diagonalization with overlap
     c_bands:  1 eigenvalues not converged
     ethr =  1.30E-07,  avg # of iterations =  6.5

     negative rho (up, down):  2.839E-04 0.000E+00

     total cpu time spent up to now is        2.5 secs

     total energy              =     -22.98053095 Ry
     estimated scf accuracy    <       0.00000081 Ry

     iteration #  7     ecut=    40.00 Ry     beta= 0.30
     Davidson diagonalization with overlap
     c_bands:  1 eigenvalues not converged
     ethr =  1.01E-08,  avg # of iterations =  3.1

     negative rho (up, down):  2.910E-04 0.000E+00

     total cpu time spent up to now is        2.7 secs

     total energy              =     -22.98053129 Ry
     estimated scf accuracy    <       0.00000009 Ry

     iteration #  8     ecut=    40.00 Ry     beta= 0.30
     Davidson diagonalization with overlap
     ethr =  1.08E-09,  avg # of iterations =  1.7

     negative rho (up, down):  2.969E-04 0.000E+00

     total cpu time spent up to now is        2.9 secs

     total energy              =     -22.98053129 Ry
     estimated scf accuracy    <       0.00000009 Ry

     iteration #  9     ecut=    40.00 Ry     beta= 0.30
     Davidson diagonalization with overlap
     ethr =  1.08E-09,  avg # of iterations =  2.0

     negative rho (up, down):  3.143E-04 0.000E+00

     total cpu time spent up to now is        3.1 secs

     End of self-consistent calculation

          k = 0.0000 0.0000 0.0000 (  4615 PWs)   bands (ev):

   -22.4805 -10.5987  -6.0446  -6.0440   0.2459   0.8827   0.9875   1.3593

          k = 0.0000 0.0962 0.0000 (  4598 PWs)   bands (ev):

   -22.3169 -10.4033  -6.6934  -6.3820   0.4686   1.1094   1.2160   1.5866

          k = 0.0000 0.1925 0.0000 (  4560 PWs)   bands (ev):

   -21.8279  -9.8223  -8.3276  -7.1726   1.1368   1.7889   1.9014   2.2675

          k = 0.0000 0.2887 0.0000 (  4562 PWs)   bands (ev):

   -21.0193 -10.4212  -8.8749  -8.0503   2.2482   2.9123   3.0438   3.3939

          k = 0.0000 0.3849 0.0000 (  4556 PWs)   bands (ev):

   -19.9032 -12.6192  -8.7819  -7.6113   1.8987   3.7908   4.5137   4.6387

          k = 0.0000 0.4811 0.0000 (  4574 PWs)   bands (ev):

   -18.5110 -14.7141  -9.2537  -6.1944  -0.2269   4.4516   5.7992   6.5309

          k = 0.0000-0.5774 0.0000 (  4564 PWs)   bands (ev):

   -17.2533 -16.2137  -9.4157  -5.3540  -1.3193   4.3731   8.1017   8.2496

          k = 0.0833 0.1443 0.0000 (  4585 PWs)   bands (ev):

   -21.9906 -10.0150  -7.7250  -7.0581   0.9143   1.5626   1.6730   2.0408

          k = 0.0833 0.2406 0.0000 (  4571 PWs)   bands (ev):

   -21.3418  -9.4311  -9.2496  -8.0536   1.8050   2.4669   2.5871   2.9475

          k = 0.0833 0.3368 0.0000 (  4547 PWs)   bands (ev):

   -20.3793 -11.4992  -8.9375  -8.1376   2.9050   3.1362   3.8364   3.9577

          k = 0.0833 0.4330 0.0000 (  4575 PWs)   bands (ev):

   -19.1220 -13.6169  -9.5708  -6.7634   0.7151   4.8789   5.3072   5.6252

          k = 0.0833 0.5292 0.0000 (  4559 PWs)   bands (ev):

   -17.6470 -15.5525  -9.8984  -5.4599  -1.0453   5.1095   7.0961   7.8291

          k = 0.1667 0.2887 0.0000 (  4563 PWs)   bands (ev):

   -20.5391 -10.7588  -9.4117  -8.3158   2.9165   3.3586   3.5931   3.7294

          k = 0.1667 0.3849 0.0000 (  4575 PWs)   bands (ev):

   -19.4339 -12.4821 -10.4652  -7.0674   1.4191   4.4637   5.1559   5.3287

          k = 0.1667 0.4811 0.0000 (  4561 PWs)   bands (ev):

   -18.0616 -14.3876 -11.0398  -5.6463  -0.4848   6.4188   7.0198   7.0955

          k = 0.1667 0.5774 0.0000 (  4526 PWs)   bands (ev):

   -16.8326 -15.8164 -11.2241  -4.7578  -1.5479   6.9130   8.6631   8.8562

          k = 0.2500 0.4330 0.0000 (  4565 PWs)   bands (ev):

   -18.2088 -13.5161 -11.9434  -5.7298  -0.1899   6.2108   6.8230   7.1559

          k = 0.2500 0.5292 0.0000 (  4521 PWs)   bands (ev):

   -16.7907 -14.9331 -12.6491  -4.3497  -1.7043   7.8786   8.3026   9.1755

          k = 0.3333 0.5774 0.0000 (  4515 PWs)   bands (ev):

   -15.5771 -15.5768 -13.5397  -2.9986  -2.9984   7.6257   9.8679   9.8680

     the Fermi energy is    -2.9795 ev

!    total energy              =     -22.98053135 Ry
     estimated scf accuracy    <          6.4E-09 Ry
     smearing contrib. (-TS)   =      -0.00009116 Ry
     internal energy E=F+TS    =     -22.98044019 Ry

     The total energy is F=E-TS. E is the sum of the following terms:
     one-electron contribution =    -357.99077856 Ry
     hartree contribution      =     180.02125303 Ry
     xc contribution           =      -7.26298317 Ry
     ewald contribution        =     162.25206852 Ry

     convergence has been achieved in   9 iterations

     negative rho (up, down):  3.143E-04 0.000E+00

     Forces acting on atoms (cartesian axes, Ry/au):

     atom    1 type  1   force =     0.00000000    0.00000000    0.00000000
     atom    2 type  1   force =     0.00000000    0.00000000    0.00000000

     Total force =     0.000000     Total SCF correction =     0.000000


     Computing stress (Cartesian axis) and pressure


     negative rho (up, down):  3.143E-04 0.000E+00
          total   stress  (Ry/bohr**3)                   (kbar)     P=       -0.88
  -0.00000740   0.00000000   0.00000000           -1.09        0.00        0.00
   0.00000000  -0.00000740   0.00000000            0.00       -1.09        0.00
   0.00000000   0.00000000  -0.00000305            0.00        0.00       -0.45


     Writing all to output data dir ./tmp/graphene_iso.save/
 
     init_run     :      0.21s CPU      0.40s WALL (       1 calls)
     electrons    :      2.24s CPU      2.41s WALL (       1 calls)
     forces       :      0.08s CPU      0.08s WALL (       1 calls)
     stress       :      0.18s CPU      0.18s WALL (       1 calls)

     Called by init_run:
     wfcinit      :      0.05s CPU      0.07s WALL (       1 calls)
     potinit      :      0.06s CPU      0.12s WALL (       1 calls)
     hinit0       :      0.06s CPU      0.15s WALL (       1 calls)

     Called by electrons:
     c_bands      :      1.57s CPU      1.63s WALL (       9 calls)
     sum_band     :      0.32s CPU      0.37s WALL (       9 calls)
     v_of_rho     :      0.20s CPU      0.24s WALL (      10 calls)
     newd         :      0.08s CPU      0.10s WALL (      10 calls)
     mix_rho      :      0.06s CPU      0.06s WALL (       9 calls)

     Called by c_bands:
     init_us_2    :      0.02s CPU      0.02s WALL (     399 calls)
     init_us_2:cp :      0.02s CPU      0.02s WALL (     399 calls)
     cegterg      :      1.51s CPU      1.54s WALL (     171 calls)

     Called by *egterg:
     cdiaghg      :      0.07s CPU      0.08s WALL (     975 calls)
     h_psi        :      1.26s CPU      1.29s WALL (     994 calls)
     s_psi        :      0.02s CPU      0.02s WALL (     994 calls)
     g_psi        :      0.01s CPU      0.01s WALL (     804 calls)

     Called by h_psi:
     h_psi:calbec :      0.05s CPU      0.06s WALL (     994 calls)
     vloc_psi     :      1.18s CPU      1.21s WALL (     994 calls)
     add_vuspsi   :      0.02s CPU      0.02s WALL (     994 calls)

     General routines
     calbec       :      0.07s CPU      0.08s WALL (    1260 calls)
     fft          :      0.24s CPU      0.36s WALL (     153 calls)
     ffts         :      0.01s CPU      0.05s WALL (      19 calls)
     fftw         :      1.28s CPU      1.31s WALL (   10302 calls)
     interpolate  :      0.01s CPU      0.05s WALL (      10 calls)
 
     Parallel routines
 
     PWSCF        :      2.87s CPU      3.57s WALL

 
   This run was terminated on:   3:34:18  11Jun2026            

=------------------------------------------------------------------------------=
   JOB DONE.
=------------------------------------------------------------------------------=
