
     Program PROJWFC v.7.1 starts on  5Jun2026 at 16: 5:28 

     This program is part of the open-source Quantum ESPRESSO suite
     for quantum simulation of materials; please cite
         "P. Giannozzi et al., J. Phys.:Condens. Matter 21 395502 (2009);
         "P. Giannozzi et al., J. Phys.:Condens. Matter 29 465901 (2017);
         "P. Giannozzi et al., J. Chem. Phys. 152 154105 (2020);
          URL http://www.quantum-espresso.org", 
     in publications or presentations arising from this work. More details at
     http://www.quantum-espresso.org/quote

     Parallel version (MPI & OpenMP), running on       7 processor cores
     Number of MPI processes:                 7
     Threads/MPI process:                     1

     MPI processes distributed on     7 nodes
     R & G space division:  proc/nbgrp/npool/nimage =       7
     222304 MiB available memory on the printing compute node when the environment starts
 

     Reading xml data from directory:

     ./data/FeO.save/
     Message from routine volume:
     axis vectors are left-handed

     IMPORTANT: XC functional enforced from input :
     Exchange-correlation= PBE
                           (   1   4   3   4   0   0   0)
     Any further DFT definition will be discarded
     Please, verify this is what you really want

 
     Parallelization info
     --------------------
     sticks:   dense  smooth     PW     G-vecs:    dense   smooth      PW
     Min         316     126     41                 7408     1873     352
     Max         317     127     41                 7409     1875     353
     Sum        2213     887    287                51859    13117    2467
 
     Using Slab Decomposition
 

     Check: negative core charge=   -0.000014

     Gaussian broadening (read from file): ngauss,degauss=   1    0.020000


     Calling projwave .... 
     Subspace diagonalization in iterative solution of the eigenvalue problem:
     a serial algorithm will be used

 
  Problem Sizes 
  natomwfc =           34
  nbnd     =           26
  nkstot   =           64
  npwx     =          244
  nkb      =           62
 

     Atomic states used for projection
     (read from pseudopotential files):

     state #   1: atom   1 (O  ), wfc  1 (l=0 m= 1)
     state #   2: atom   1 (O  ), wfc  2 (l=1 m= 1)
     state #   3: atom   1 (O  ), wfc  2 (l=1 m= 2)
     state #   4: atom   1 (O  ), wfc  2 (l=1 m= 3)
     state #   5: atom   2 (O  ), wfc  1 (l=0 m= 1)
     state #   6: atom   2 (O  ), wfc  2 (l=1 m= 1)
     state #   7: atom   2 (O  ), wfc  2 (l=1 m= 2)
     state #   8: atom   2 (O  ), wfc  2 (l=1 m= 3)
     state #   9: atom   3 (Fe1), wfc  1 (l=0 m= 1)
     state #  10: atom   3 (Fe1), wfc  2 (l=1 m= 1)
     state #  11: atom   3 (Fe1), wfc  2 (l=1 m= 2)
     state #  12: atom   3 (Fe1), wfc  2 (l=1 m= 3)
     state #  13: atom   3 (Fe1), wfc  3 (l=2 m= 1)
     state #  14: atom   3 (Fe1), wfc  3 (l=2 m= 2)
     state #  15: atom   3 (Fe1), wfc  3 (l=2 m= 3)
     state #  16: atom   3 (Fe1), wfc  3 (l=2 m= 4)
     state #  17: atom   3 (Fe1), wfc  3 (l=2 m= 5)
     state #  18: atom   3 (Fe1), wfc  4 (l=0 m= 1)
     state #  19: atom   3 (Fe1), wfc  5 (l=1 m= 1)
     state #  20: atom   3 (Fe1), wfc  5 (l=1 m= 2)
     state #  21: atom   3 (Fe1), wfc  5 (l=1 m= 3)
     state #  22: atom   4 (Fe2), wfc  1 (l=0 m= 1)
     state #  23: atom   4 (Fe2), wfc  2 (l=1 m= 1)
     state #  24: atom   4 (Fe2), wfc  2 (l=1 m= 2)
     state #  25: atom   4 (Fe2), wfc  2 (l=1 m= 3)
     state #  26: atom   4 (Fe2), wfc  3 (l=2 m= 1)
     state #  27: atom   4 (Fe2), wfc  3 (l=2 m= 2)
     state #  28: atom   4 (Fe2), wfc  3 (l=2 m= 3)
     state #  29: atom   4 (Fe2), wfc  3 (l=2 m= 4)
     state #  30: atom   4 (Fe2), wfc  3 (l=2 m= 5)
     state #  31: atom   4 (Fe2), wfc  4 (l=0 m= 1)
     state #  32: atom   4 (Fe2), wfc  5 (l=1 m= 1)
     state #  33: atom   4 (Fe2), wfc  5 (l=1 m= 2)
     state #  34: atom   4 (Fe2), wfc  5 (l=1 m= 3)

 k =   0.0000000000  0.0000000000  0.0000000000
==== e(   1) =   -75.82391 eV ==== 
     psi = 0.991*[#   9]+0.003*[#  31]+0.002*[#  18]
    |psi|^2 = 1.000
==== e(   2) =   -71.37240 eV ==== 
     psi = 0.990*[#  22]+0.003*[#  18]+0.002*[#  31]
    |psi|^2 = 1.000
==== e(   3) =   -42.06716 eV ==== 
     psi = 0.331*[#  10]+0.331*[#  11]+0.331*[#  12]+0.002*[#  32]+0.002*[#  33]
          +0.002*[#  34]
    |psi|^2 = 1.000
==== e(   4) =   -41.75703 eV ==== 
     psi = 0.332*[#  10]+0.332*[#  11]+0.332*[#  12]+0.001*[#  19]+0.001*[#  20]
          +0.001*[#  21]
    |psi|^2 = 1.000
==== e(   5) =   -41.75703 eV ==== 
     psi = 0.332*[#  10]+0.332*[#  11]+0.332*[#  12]+0.001*[#  19]+0.001*[#  20]
          +0.001*[#  21]
    |psi|^2 = 1.000
==== e(   6) =   -37.58331 eV ==== 
     psi = 0.331*[#  23]+0.331*[#  24]+0.331*[#  25]+0.002*[#  19]+0.002*[#  20]
          +0.002*[#  21]
    |psi|^2 = 1.000
==== e(   7) =   -37.49478 eV ==== 
     psi = 0.332*[#  23]+0.332*[#  24]+0.332*[#  25]
    |psi|^2 = 1.000
==== e(   8) =   -37.49478 eV ==== 
     psi = 0.332*[#  23]+0.332*[#  24]+0.332*[#  25]
    |psi|^2 = 1.000
==== e(   9) =    -6.10040 eV ==== 
     psi = 0.339*[#   1]+0.339*[#   5]+0.162*[#  18]+0.155*[#  31]+0.003*[#  22]
          +0.003*[#   9]
    |psi|^2 = 1.000
==== e(  10) =    -4.92914 eV ==== 
     psi = 0.372*[#   1]+0.372*[#   5]+0.042*[#  19]+0.042*[#  20]+0.042*[#  21]
          +0.041*[#  32]+0.041*[#  33]+0.041*[#  34]
    |psi|^2 = 0.999
==== e(  11) =     5.57135 eV ==== 
     psi = 0.113*[#  18]+0.104*[#  31]+0.085*[#  14]+0.085*[#  15]+0.085*[#  17]
          +0.084*[#   2]+0.084*[#   3]+0.084*[#   4]+0.084*[#   6]+0.084*[#   7]
          +0.084*[#   8]+0.006*[#  27]+0.006*[#  28]+0.006*[#  30]+0.002*[#  22]
          +0.002*[#   9]
    |psi|^2 = 0.996
==== e(  12) =     7.18990 eV ==== 
     psi = 0.289*[#  13]+0.289*[#  16]+0.052*[#   2]+0.052*[#   3]+0.052*[#   4]
          +0.052*[#   6]+0.052*[#   7]+0.052*[#   8]+0.028*[#  14]+0.028*[#  15]
          +0.028*[#  17]+0.008*[#  26]+0.008*[#  29]
    |psi|^2 = 0.994
==== e(  13) =     7.18990 eV ==== 
     psi = 0.289*[#  13]+0.289*[#  16]+0.052*[#   2]+0.052*[#   3]+0.052*[#   4]
          +0.052*[#   6]+0.052*[#   7]+0.052*[#   8]+0.028*[#  14]+0.028*[#  15]
          +0.028*[#  17]+0.008*[#  26]+0.008*[#  29]
    |psi|^2 = 0.994
==== e(  14) =     8.86207 eV ==== 
     psi = 0.292*[#  14]+0.292*[#  15]+0.292*[#  17]+0.054*[#  13]+0.054*[#  16]
          +0.002*[#  27]+0.002*[#  28]+0.002*[#  30]
    |psi|^2 = 0.992
==== e(  15) =     8.86207 eV ==== 
     psi = 0.292*[#  14]+0.292*[#  15]+0.292*[#  17]+0.054*[#  13]+0.054*[#  16]
          +0.002*[#  27]+0.002*[#  28]+0.002*[#  30]
    |psi|^2 = 0.992
==== e(  16) =     9.06009 eV ==== 
     psi = 0.244*[#  14]+0.244*[#  15]+0.244*[#  17]+0.031*[#   2]+0.031*[#   3]
          +0.031*[#   4]+0.031*[#   6]+0.031*[#   7]+0.031*[#   8]+0.030*[#  18]
          +0.024*[#  31]+0.008*[#  27]+0.008*[#  28]+0.008*[#  30]
    |psi|^2 = 0.993
==== e(  17) =    10.73163 eV ==== 
     psi = 0.161*[#   2]+0.161*[#   3]+0.161*[#   4]+0.161*[#   6]+0.161*[#   7]
          +0.161*[#   8]+0.005*[#  19]+0.005*[#  20]+0.005*[#  21]+0.004*[#  32]
          +0.004*[#  33]+0.004*[#  34]
    |psi|^2 = 0.995
==== e(  18) =    10.73244 eV ==== 
     psi = 0.161*[#   2]+0.161*[#   3]+0.161*[#   4]+0.161*[#   6]+0.161*[#   7]
          +0.161*[#   8]+0.005*[#  19]+0.005*[#  20]+0.005*[#  21]+0.004*[#  32]
          +0.004*[#  33]+0.004*[#  34]
    |psi|^2 = 0.995
==== e(  19) =    10.73244 eV ==== 
     psi = 0.161*[#   2]+0.161*[#   3]+0.161*[#   4]+0.161*[#   6]+0.161*[#   7]
          +0.161*[#   8]+0.005*[#  19]+0.005*[#  20]+0.005*[#  21]+0.004*[#  32]
          +0.004*[#  33]+0.004*[#  34]
    |psi|^2 = 0.995
==== e(  20) =    11.37956 eV ==== 
     psi = 0.149*[#  13]+0.149*[#  16]+0.088*[#   2]+0.088*[#   3]+0.088*[#   4]
          +0.088*[#   6]+0.088*[#   7]+0.088*[#   8]+0.062*[#  26]+0.062*[#  29]
          +0.008*[#  14]+0.008*[#  15]+0.008*[#  17]+0.007*[#  27]+0.007*[#  28]
          +0.007*[#  30]
    |psi|^2 = 0.991
==== e(  21) =    11.37956 eV ==== 
     psi = 0.149*[#  13]+0.149*[#  16]+0.088*[#   2]+0.088*[#   3]+0.088*[#   4]
          +0.088*[#   6]+0.088*[#   7]+0.088*[#   8]+0.062*[#  26]+0.062*[#  29]
          +0.008*[#  14]+0.008*[#  15]+0.008*[#  17]+0.007*[#  27]+0.007*[#  28]
          +0.007*[#  30]
    |psi|^2 = 0.991
==== e(  22) =    14.04640 eV ==== 
     psi = 0.305*[#  27]+0.305*[#  28]+0.305*[#  30]+0.024*[#  26]+0.024*[#  29]
          +0.003*[#  14]+0.003*[#  15]+0.003*[#  17]
    |psi|^2 = 0.978
==== e(  23) =    14.04640 eV ==== 
     psi = 0.305*[#  27]+0.305*[#  28]+0.305*[#  30]+0.024*[#  26]+0.024*[#  29]
          +0.003*[#  14]+0.003*[#  15]+0.003*[#  17]
    |psi|^2 = 0.978
==== e(  24) =    14.51468 eV ==== 
     psi = 0.355*[#  18]+0.313*[#  31]+0.159*[#   1]+0.159*[#   5]+0.003*[#  22]
          +0.002*[#   9]
    |psi|^2 = 0.994
==== e(  25) =    16.22598 eV ==== 
     psi = 0.302*[#  27]+0.302*[#  28]+0.302*[#  30]+0.009*[#   2]+0.009*[#   3]
          +0.009*[#   4]+0.009*[#   6]+0.009*[#   7]+0.009*[#   8]+0.001*[#  14]
          +0.001*[#  15]+0.001*[#  17]
    |psi|^2 = 0.967
==== e(  26) =    17.38380 eV ==== 
     psi = 0.398*[#  26]+0.398*[#  29]+0.025*[#   2]+0.025*[#   3]+0.025*[#   4]
          +0.025*[#   6]+0.025*[#   7]+0.025*[#   8]+0.010*[#  27]+0.010*[#  28]
          +0.010*[#  30]+0.007*[#  13]+0.007*[#  16]
    |psi|^2 = 0.988

 k =   0.3061862178 -0.1020620726 -0.1020620726
==== e(   1) =   -75.82311 eV ==== 
     psi = 0.981*[#   9]+0.004*[#  19]+0.004*[#  20]+0.004*[#  21]+0.001*[#  32]
          +0.001*[#  33]+0.001*[#  34]
    |psi|^2 = 1.000
==== e(   2) =   -71.37140 eV ==== 
     psi = 0.980*[#  22]+0.004*[#  32]+0.004*[#  33]+0.004*[#  34]+0.001*[#  19]
          +0.001*[#  20]+0.001*[#  21]
    |psi|^2 = 1.000
==== e(   3) =   -42.06581 eV ==== 
     psi = 0.331*[#  10]+0.331*[#  11]+0.331*[#  12]+0.002*[#  32]+0.002*[#  33]
          +0.002*[#  34]
    |psi|^2 = 1.000
==== e(   4) =   -41.76633 eV ==== 
     psi = 0.333*[#  10]+0.333*[#  11]+0.333*[#  12]
    |psi|^2 = 1.000
==== e(   5) =   -41.75935 eV ==== 
     psi = 0.332*[#  10]+0.332*[#  11]+0.332*[#  12]
    |psi|^2 = 1.000
==== e(   6) =   -37.58150 eV ==== 
     psi = 0.331*[#  23]+0.331*[#  24]+0.331*[#  25]+0.002*[#  19]+0.002*[#  20]
          +0.002*[#  21]
    |psi|^2 = 1.000
==== e(   7) =   -37.50666 eV ==== 
     psi = 0.333*[#  23]+0.333*[#  24]+0.333*[#  25]
    |psi|^2 = 1.000
==== e(   8) =   -37.49767 eV ==== 
     psi = 0.332*[#  23]+0.332*[#  24]+0.332*[#  25]
    |psi|^2 = 1.000
==== e(   9) =    -5.86150 eV ==== 
     psi = 0.334*[#   1]+0.334*[#   5]+0.098*[#  18]+0.093*[#  31]+0.022*[#  19]
          +0.022*[#  20]+0.022*[#  21]+0.022*[#  32]+0.022*[#  33]+0.022*[#  34]
          +0.003*[#  22]+0.003*[#   9]
    |psi|^2 = 1.000
==== e(  10) =    -4.91335 eV ==== 
     psi = 0.388*[#   1]+0.388*[#   5]+0.035*[#  19]+0.035*[#  20]+0.035*[#  21]
          +0.034*[#  32]+0.034*[#  33]+0.034*[#  34]+0.004*[#  13]+0.004*[#  16]
          +0.002*[#  26]+0.002*[#  29]
    |psi|^2 = 0.999
==== e(  11) =     5.98357 eV ==== 
     psi = 0.088*[#  14]+0.088*[#  15]+0.088*[#  17]+0.080*[#   2]+0.080*[#   3]
          +0.080*[#   4]+0.080*[#   6]+0.080*[#   7]+0.080*[#   8]+0.080*[#  31]
          +0.076*[#  18]+0.011*[#  19]+0.011*[#  20]+0.011*[#  21]+0.010*[#  32]
          +0.010*[#  33]+0.010*[#  34]+0.008*[#  13]+0.008*[#  16]+0.005*[#  27]
          +0.005*[#  28]+0.005*[#  30]+0.002*[#  22]+0.001*[#   9]
    |psi|^2 = 0.997
==== e(  12) =     7.13523 eV ==== 
     psi = 0.242*[#  13]+0.242*[#  16]+0.057*[#   2]+0.057*[#   3]+0.057*[#   4]
          +0.057*[#   6]+0.057*[#   7]+0.057*[#   8]+0.038*[#  14]+0.038*[#  15]
          +0.038*[#  17]+0.009*[#  19]+0.009*[#  20]+0.009*[#  21]+0.007*[#  32]
          +0.007*[#  33]+0.007*[#  34]+0.002*[#  26]+0.002*[#  27]+0.002*[#  28]
          +0.002*[#  29]+0.002*[#  30]+0.001*[#  18]
    |psi|^2 = 0.995
==== e(  13) =     7.30061 eV ==== 
     psi = 0.310*[#  13]+0.310*[#  16]+0.054*[#   2]+0.054*[#   3]+0.054*[#   4]
          +0.054*[#   6]+0.054*[#   7]+0.054*[#   8]+0.010*[#  14]+0.010*[#  15]
          +0.010*[#  17]+0.007*[#  26]+0.007*[#  29]+0.002*[#  32]+0.002*[#  33]
          +0.002*[#  34]+0.001*[#  19]+0.001*[#  20]+0.001*[#  21]
    |psi|^2 = 0.996
==== e(  14) =     8.27929 eV ==== 
     psi = 0.171*[#  14]+0.171*[#  15]+0.171*[#  17]+0.050*[#  13]+0.050*[#  16]
          +0.048*[#   2]+0.048*[#   3]+0.048*[#   4]+0.048*[#   6]+0.048*[#   7]
          +0.048*[#   8]+0.034*[#  18]+0.009*[#   1]+0.009*[#   5]+0.008*[#  31]
          +0.007*[#  26]+0.007*[#  29]+0.003*[#  32]+0.003*[#  33]+0.003*[#  34]
          +0.002*[#  27]+0.002*[#  28]+0.002*[#  30]
    |psi|^2 = 0.992
==== e(  15) =     8.71100 eV ==== 
     psi = 0.272*[#  14]+0.272*[#  15]+0.272*[#  17]+0.021*[#  13]+0.021*[#  16]
          +0.019*[#   2]+0.019*[#   3]+0.019*[#   4]+0.019*[#   6]+0.019*[#   7]
          +0.019*[#   8]+0.002*[#  27]+0.002*[#  28]+0.002*[#  30]+0.002*[#  19]
          +0.002*[#  20]+0.002*[#  21]+0.002*[#  26]+0.002*[#  29]+0.001*[#  32]
          +0.001*[#  33]+0.001*[#  34]
    |psi|^2 = 0.993
==== e(  16) =     9.00286 eV ==== 
     psi = 0.237*[#  14]+0.237*[#  15]+0.237*[#  17]+0.039*[#  18]+0.033*[#   2]
          +0.033*[#   3]+0.033*[#   4]+0.033*[#   6]+0.033*[#   7]+0.033*[#   8]
          +0.009*[#  31]+0.006*[#  27]+0.006*[#  28]+0.006*[#  30]+0.004*[#  13]
          +0.004*[#  16]+0.002*[#   1]+0.002*[#   5]+0.001*[#  19]+0.001*[#  20]
          +0.001*[#  21]+0.001*[#  32]+0.001*[#  33]+0.001*[#  34]
    |psi|^2 = 0.993
==== e(  17) =     9.69987 eV ==== 
     psi = 0.106*[#   2]+0.106*[#   3]+0.106*[#   4]+0.106*[#   6]+0.106*[#   7]
          +0.106*[#   8]+0.067*[#  14]+0.067*[#  15]+0.067*[#  17]+0.031*[#  26]
          +0.031*[#  29]+0.008*[#  31]+0.007*[#  19]+0.007*[#  20]+0.007*[#  21]
          +0.007*[#  32]+0.007*[#  33]+0.007*[#  34]+0.006*[#  27]+0.006*[#  28]
          +0.006*[#  30]+0.006*[#   1]+0.006*[#   5]+0.005*[#  18]+0.003*[#  13]
          +0.003*[#  16]
    |psi|^2 = 0.993
==== e(  18) =    10.16735 eV ==== 
     psi = 0.105*[#   2]+0.105*[#   3]+0.105*[#   4]+0.105*[#   6]+0.105*[#   7]
          +0.105*[#   8]+0.049*[#  13]+0.049*[#  16]+0.047*[#  31]+0.044*[#  14]
          +0.044*[#  15]+0.044*[#  17]+0.016*[#   1]+0.016*[#   5]+0.016*[#  18]
          +0.006*[#  27]+0.006*[#  28]+0.006*[#  30]+0.006*[#  19]+0.006*[#  20]
          +0.006*[#  21]
    |psi|^2 = 0.996
==== e(  19) =    10.57685 eV ==== 
     psi = 0.127*[#   2]+0.127*[#   3]+0.127*[#   4]+0.127*[#   6]+0.127*[#   7]
          +0.127*[#   8]+0.048*[#  14]+0.048*[#  15]+0.048*[#  17]+0.024*[#  26]
          +0.024*[#  29]+0.007*[#  19]+0.007*[#  20]+0.007*[#  21]+0.006*[#  13]
          +0.006*[#  16]+0.002*[#  27]+0.002*[#  28]+0.002*[#  30]+0.001*[#  32]
          +0.001*[#  33]+0.001*[#  34]
    |psi|^2 = 0.995
==== e(  20) =    11.47274 eV ==== 
     psi = 0.155*[#  13]+0.155*[#  16]+0.096*[#   2]+0.096*[#   3]+0.096*[#   4]
          +0.096*[#   6]+0.096*[#   7]+0.096*[#   8]+0.033*[#  26]+0.033*[#  29]
          +0.007*[#  27]+0.007*[#  28]+0.007*[#  30]+0.007*[#  32]+0.007*[#  33]
          +0.007*[#  34]
    |psi|^2 = 0.994
==== e(  21) =    11.61743 eV ==== 
     psi = 0.133*[#  13]+0.133*[#  16]+0.103*[#   2]+0.103*[#   3]+0.103*[#   4]
          +0.103*[#   6]+0.103*[#   7]+0.103*[#   8]+0.013*[#  31]+0.011*[#   1]
          +0.011*[#   5]+0.010*[#  14]+0.010*[#  15]+0.010*[#  17]+0.009*[#  32]
          +0.009*[#  33]+0.009*[#  34]+0.003*[#  19]+0.003*[#  20]+0.003*[#  21]
          +0.003*[#  27]+0.003*[#  28]+0.003*[#  30]+0.002*[#  18]
    |psi|^2 = 0.996
==== e(  22) =    13.96212 eV ==== 
     psi = 0.279*[#  27]+0.279*[#  28]+0.279*[#  30]+0.030*[#  26]+0.030*[#  29]
          +0.006*[#   2]+0.006*[#   3]+0.006*[#   4]+0.006*[#   6]+0.006*[#   7]
          +0.006*[#   8]+0.006*[#   1]+0.006*[#   5]+0.005*[#  31]+0.005*[#  18]
          +0.004*[#  19]+0.004*[#  20]+0.004*[#  21]+0.002*[#  14]+0.002*[#  15]
          +0.002*[#  17]
    |psi|^2 = 0.974
==== e(  23) =    14.26438 eV ==== 
     psi = 0.304*[#  27]+0.304*[#  28]+0.304*[#  30]+0.016*[#  26]+0.016*[#  29]
          +0.006*[#   2]+0.006*[#   3]+0.006*[#   4]+0.006*[#   6]+0.006*[#   7]
          +0.006*[#   8]
    |psi|^2 = 0.982
==== e(  24) =    15.87887 eV ==== 
     psi = 0.196*[#  18]+0.126*[#  31]+0.101*[#   1]+0.101*[#   5]+0.049*[#  27]
          +0.049*[#  28]+0.049*[#  30]+0.033*[#  26]+0.033*[#  29]+0.027*[#  32]
          +0.027*[#  33]+0.027*[#  34]+0.020*[#   2]+0.020*[#   3]+0.020*[#   4]
          +0.020*[#   6]+0.020*[#   7]+0.020*[#   8]+0.015*[#  19]+0.015*[#  20]
          +0.015*[#  21]+0.003*[#  13]+0.003*[#  16]+0.002*[#   9]+0.002*[#  22]
          
    |psi|^2 = 0.989
==== e(  25) =    16.33375 eV ==== 
     psi = 0.261*[#  27]+0.261*[#  28]+0.261*[#  30]+0.028*[#  18]+0.022*[#  31]
          +0.015*[#   2]+0.015*[#   3]+0.015*[#   4]+0.015*[#   6]+0.015*[#   7]
          +0.015*[#   8]+0.013*[#   1]+0.013*[#   5]+0.005*[#  19]+0.005*[#  20]
          +0.005*[#  21]+0.003*[#  26]+0.003*[#  29]
    |psi|^2 = 0.976
==== e(  26) =    17.23705 eV ==== 
     psi = 0.360*[#  26]+0.360*[#  29]+0.021*[#   1]+0.021*[#   5]+0.021*[#  31]
          +0.017*[#  19]+0.017*[#  20]+0.017*[#  21]+0.016*[#   2]+0.016*[#   3]
          +0.016*[#   4]+0.016*[#   6]+0.016*[#   7]+0.016*[#   8]+0.012*[#  27]
          +0.012*[#  28]+0.012*[#  30]+0.005*[#  32]+0.005*[#  33]+0.005*[#  34]
          +0.005*[#  18]
    |psi|^2 = 0.989

 k =   0.6123724357 -0.2041241452 -0.2041241452
==== e(   1) =   -75.82152 eV ==== 
     psi = 0.983*[#   9]+0.003*[#  19]+0.003*[#  20]+0.003*[#  21]+0.002*[#  32]
          +0.002*[#  33]+0.002*[#  34]
    |psi|^2 = 1.000
==== e(   2) =   -71.36939 eV ==== 
     psi = 0.983*[#  22]+0.003*[#  32]+0.003*[#  33]+0.003*[#  34]+0.002*[#  19]
          +0.002*[#  20]+0.002*[#  21]
    |psi|^2 = 1.000
==== e(   3) =   -42.06311 eV ==== 
     psi = 0.332*[#  10]+0.332*[#  11]+0.332*[#  12]
    |psi|^2 = 1.000
==== e(   4) =   -41.78484 eV ==== 
     psi = 0.332*[#  10]+0.332*[#  11]+0.332*[#  12]
    |psi|^2 = 1.000
==== e(   5) =   -41.76396 eV ==== 
     psi = 0.333*[#  10]+0.333*[#  11]+0.333*[#  12]
    |psi|^2 = 1.000
==== e(   6) =   -37.57793 eV ==== 
     psi = 0.332*[#  23]+0.332*[#  24]+0.332*[#  25]
    |psi|^2 = 1.000
==== e(   7) =   -37.53039 eV ==== 
     psi = 0.332*[#  23]+0.332*[#  24]+0.332*[#  25]
    |psi|^2 = 1.000
==== e(   8) =   -37.50349 eV ==== 
     psi = 0.333*[#  23]+0.333*[#  24]+0.333*[#  25]
    |psi|^2 = 1.000
==== e(   9) =    -5.34017 eV ==== 
     psi = 0.360*[#   1]+0.360*[#   5]+0.035*[#  18]+0.034*[#  32]+0.034*[#  33]
          +0.034*[#  34]+0.032*[#  31]+0.031*[#  19]+0.031*[#  20]+0.031*[#  21]
          +0.003*[#  13]+0.003*[#  16]+0.002*[#  22]+0.002*[#   9]+0.001*[#  26]
          +0.001*[#  29]
    |psi|^2 = 0.999
==== e(  10) =    -4.87542 eV ==== 
     psi = 0.413*[#   1]+0.413*[#   5]+0.026*[#  19]+0.026*[#  20]+0.026*[#  21]
          +0.021*[#  32]+0.021*[#  33]+0.021*[#  34]+0.009*[#  13]+0.009*[#  16]
          +0.005*[#  26]+0.005*[#  29]
    |psi|^2 = 0.999
==== e(  11) =     6.50942 eV ==== 
     psi = 0.129*[#  13]+0.129*[#  16]+0.071*[#   2]+0.071*[#   3]+0.071*[#   4]
          +0.071*[#   6]+0.071*[#   7]+0.071*[#   8]+0.059*[#  31]+0.057*[#  14]
          +0.057*[#  15]+0.057*[#  17]+0.013*[#  32]+0.013*[#  33]+0.013*[#  34]
          +0.008*[#  19]+0.008*[#  20]+0.008*[#  21]+0.006*[#  18]+0.003*[#  27]
          +0.003*[#  28]+0.003*[#  30]+0.002*[#  22]+0.002*[#   1]+0.002*[#   5]
          
    |psi|^2 = 0.995
==== e(  12) =     6.87990 eV ==== 
     psi = 0.106*[#  14]+0.106*[#  15]+0.106*[#  17]+0.088*[#  18]+0.076*[#   2]
          +0.076*[#   3]+0.076*[#   4]+0.076*[#   6]+0.076*[#   7]+0.076*[#   8]
          +0.028*[#  32]+0.028*[#  33]+0.028*[#  34]+0.010*[#   1]+0.010*[#   5]
          +0.007*[#  26]+0.007*[#  29]+0.004*[#  13]+0.004*[#  16]+0.003*[#  31]
          +0.002*[#   9]
    |psi|^2 = 0.995
==== e(  13) =     7.37519 eV ==== 
     psi = 0.315*[#  13]+0.315*[#  16]+0.054*[#   2]+0.054*[#   3]+0.054*[#   4]
          +0.054*[#   6]+0.054*[#   7]+0.054*[#   8]+0.006*[#  32]+0.006*[#  33]
          +0.006*[#  34]+0.005*[#  14]+0.005*[#  15]+0.005*[#  17]+0.002*[#  26]
          +0.002*[#  29]
    |psi|^2 = 0.996
==== e(  14) =     7.40809 eV ==== 
     psi = 0.079*[#   2]+0.079*[#   3]+0.079*[#   4]+0.079*[#   6]+0.079*[#   7]
          +0.079*[#   8]+0.074*[#  14]+0.074*[#  15]+0.074*[#  17]+0.046*[#  19]
          +0.046*[#  20]+0.046*[#  21]+0.035*[#  13]+0.035*[#  16]+0.015*[#  32]
          +0.015*[#  33]+0.015*[#  34]+0.013*[#  18]+0.006*[#  27]+0.006*[#  28]
          +0.006*[#  30]+0.004*[#  26]+0.004*[#  29]+0.003*[#   1]+0.003*[#   5]
          +0.001*[#  31]
    |psi|^2 = 0.998
==== e(  15) =     8.54819 eV ==== 
     psi = 0.095*[#   2]+0.095*[#   3]+0.095*[#   4]+0.095*[#   6]+0.095*[#   7]
          +0.095*[#   8]+0.080*[#  13]+0.080*[#  16]+0.046*[#  31]+0.024*[#  14]
          +0.024*[#  15]+0.024*[#  17]+0.018*[#  19]+0.018*[#  20]+0.018*[#  21]
          +0.016*[#  27]+0.016*[#  28]+0.016*[#  30]+0.009*[#  26]+0.009*[#  29]
          +0.005*[#   1]+0.005*[#   5]+0.004*[#  32]+0.004*[#  33]+0.004*[#  34]
          
    |psi|^2 = 0.994
==== e(  16) =     8.78283 eV ==== 
     psi = 0.218*[#  14]+0.218*[#  15]+0.218*[#  17]+0.046*[#   2]+0.046*[#   3]
          +0.046*[#   4]+0.046*[#   6]+0.046*[#   7]+0.046*[#   8]+0.012*[#  26]
          +0.012*[#  29]+0.009*[#  19]+0.009*[#  20]+0.009*[#  21]+0.004*[#  13]
          +0.004*[#  16]+0.003*[#  27]+0.003*[#  28]+0.003*[#  30]
    |psi|^2 = 0.996
==== e(  17) =     8.89072 eV ==== 
     psi = 0.203*[#  14]+0.203*[#  15]+0.203*[#  17]+0.038*[#   2]+0.038*[#   3]
          +0.038*[#   4]+0.038*[#   6]+0.038*[#   7]+0.038*[#   8]+0.034*[#  13]
          +0.034*[#  16]+0.027*[#  18]+0.008*[#  19]+0.008*[#  20]+0.008*[#  21]
          +0.004*[#   1]+0.004*[#   5]+0.004*[#  27]+0.004*[#  28]+0.004*[#  30]
          +0.003*[#  26]+0.003*[#  29]+0.002*[#  31]+0.001*[#  32]+0.001*[#  33]
          +0.001*[#  34]
    |psi|^2 = 0.992
==== e(  18) =    10.03339 eV ==== 
     psi = 0.101*[#  14]+0.101*[#  15]+0.101*[#  17]+0.090*[#   2]+0.090*[#   3]
          +0.090*[#   4]+0.090*[#   6]+0.090*[#   7]+0.090*[#   8]+0.032*[#  26]
          +0.032*[#  29]+0.020*[#  13]+0.020*[#  16]+0.010*[#  19]+0.010*[#  20]
          +0.010*[#  21]+0.005*[#  27]+0.005*[#  28]+0.005*[#  30]
    |psi|^2 = 0.996
==== e(  19) =    10.05810 eV ==== 
     psi = 0.177*[#  14]+0.177*[#  15]+0.177*[#  17]+0.051*[#   2]+0.051*[#   3]
          +0.051*[#   4]+0.051*[#   6]+0.051*[#   7]+0.051*[#   8]+0.034*[#  13]
          +0.034*[#  16]+0.018*[#  31]+0.014*[#  18]+0.011*[#  32]+0.011*[#  33]
          +0.011*[#  34]+0.010*[#   1]+0.010*[#   5]+0.001*[#  19]+0.001*[#  20]
          +0.001*[#  21]
    |psi|^2 = 0.997
==== e(  20) =    11.38981 eV ==== 
     psi = 0.166*[#  13]+0.166*[#  16]+0.086*[#   2]+0.086*[#   3]+0.086*[#   4]
          +0.086*[#   6]+0.086*[#   7]+0.086*[#   8]+0.016*[#   1]+0.016*[#   5]
          +0.014*[#  14]+0.014*[#  15]+0.014*[#  17]+0.013*[#  31]+0.012*[#  26]
          +0.012*[#  29]+0.008*[#  32]+0.008*[#  33]+0.008*[#  34]+0.005*[#  18]
          +0.003*[#  19]+0.003*[#  20]+0.003*[#  21]
    |psi|^2 = 0.997
==== e(  21) =    11.70459 eV ==== 
     psi = 0.158*[#  13]+0.158*[#  16]+0.098*[#   2]+0.098*[#   3]+0.098*[#   4]
          +0.098*[#   6]+0.098*[#   7]+0.098*[#   8]+0.014*[#  32]+0.014*[#  33]
          +0.014*[#  34]+0.008*[#  14]+0.008*[#  15]+0.008*[#  17]+0.007*[#  26]
          +0.007*[#  29]+0.004*[#  27]+0.004*[#  28]+0.004*[#  30]
    |psi|^2 = 0.998
==== e(  22) =    13.83900 eV ==== 
     psi = 0.272*[#  27]+0.272*[#  28]+0.272*[#  30]+0.021*[#  26]+0.021*[#  29]
          +0.011*[#   2]+0.011*[#   3]+0.011*[#   4]+0.011*[#   6]+0.011*[#   7]
          +0.011*[#   8]+0.007*[#  19]+0.007*[#  20]+0.007*[#  21]+0.005*[#   1]
          +0.005*[#   5]+0.005*[#  31]
    |psi|^2 = 0.965
==== e(  23) =    14.67831 eV ==== 
     psi = 0.307*[#  27]+0.307*[#  28]+0.307*[#  30]+0.008*[#   2]+0.008*[#   3]
          +0.008*[#   4]+0.008*[#   6]+0.008*[#   7]+0.008*[#   8]+0.008*[#  26]
          +0.008*[#  29]
    |psi|^2 = 0.989
==== e(  24) =    16.47632 eV ==== 
     psi = 0.298*[#  27]+0.298*[#  28]+0.298*[#  30]+0.008*[#  26]+0.008*[#  29]
          +0.008*[#   2]+0.008*[#   3]+0.008*[#   4]+0.008*[#   6]+0.008*[#   7]
          +0.008*[#   8]+0.004*[#  18]+0.004*[#  32]+0.004*[#  33]+0.004*[#  34]
          +0.002*[#   1]+0.002*[#   5]
    |psi|^2 = 0.978
==== e(  25) =    16.85533 eV ==== 
     psi = 0.317*[#  26]+0.317*[#  29]+0.077*[#  18]+0.040*[#   1]+0.040*[#   5]
          +0.021*[#  27]+0.021*[#  28]+0.021*[#  30]+0.017*[#  19]+0.017*[#  20]
          +0.017*[#  21]+0.014*[#  31]+0.009*[#   2]+0.009*[#   3]+0.009*[#   4]
          +0.009*[#   6]+0.009*[#   7]+0.009*[#   8]+0.006*[#  32]+0.006*[#  33]
          +0.006*[#  34]
    |psi|^2 = 0.991
==== e(  26) =    17.33347 eV ==== 
     psi = 0.433*[#  26]+0.433*[#  29]+0.014*[#   2]+0.014*[#   3]+0.014*[#   4]
          +0.014*[#   6]+0.014*[#   7]+0.014*[#   8]+0.009*[#  27]+0.009*[#  28]
          +0.009*[#  30]+0.004*[#  19]+0.004*[#  20]+0.004*[#  21]+0.002*[#  13]
          +0.002*[#  16]
    |psi|^2 = 0.991

 k =  -0.9185586535  0.3061862178  0.3061862178
==== e(   1) =   -75.82072 eV ==== 
     psi = 0.990*[#   9]+0.002*[#  32]+0.002*[#  33]+0.002*[#  34]+0.001*[#  18]
          
    |psi|^2 = 1.000
==== e(   2) =   -71.36839 eV ==== 
     psi = 0.990*[#  22]+0.002*[#  19]+0.002*[#  20]+0.002*[#  21]
    |psi|^2 = 1.000
==== e(   3) =   -42.06177 eV ==== 
     psi = 0.333*[#  10]+0.333*[#  11]+0.333*[#  12]
    |psi|^2 = 1.000
==== e(   4) =   -41.79406 eV ==== 
     psi = 0.331*[#  10]+0.331*[#  11]+0.331*[#  12]+0.001*[#  19]+0.001*[#  20]
          +0.001*[#  21]
    |psi|^2 = 1.000
==== e(   5) =   -41.76627 eV ==== 
     psi = 0.333*[#  10]+0.333*[#  11]+0.333*[#  12]
    |psi|^2 = 1.000
==== e(   6) =   -37.57616 eV ==== 
     psi = 0.333*[#  23]+0.333*[#  24]+0.333*[#  25]
    |psi|^2 = 1.000
==== e(   7) =   -37.54223 eV ==== 
     psi = 0.331*[#  23]+0.331*[#  24]+0.331*[#  25]+0.002*[#  32]+0.002*[#  33]
          +0.002*[#  34]
    |psi|^2 = 1.000
==== e(   8) =   -37.50640 eV ==== 
     psi = 0.333*[#  23]+0.333*[#  24]+0.333*[#  25]
    |psi|^2 = 1.000
==== e(   9) =    -5.00613 eV ==== 
     psi = 0.401*[#   1]+0.401*[#   5]+0.049*[#  32]+0.049*[#  33]+0.049*[#  34]
          +0.016*[#  13]+0.016*[#  16]+0.014*[#  18]
    |psi|^2 = 0.999
==== e(  10) =    -4.90225 eV ==== 
     psi = 0.407*[#   1]+0.407*[#   5]+0.051*[#  19]+0.051*[#  20]+0.051*[#  21]
          +0.014*[#  31]+0.008*[#  26]+0.008*[#  29]
    |psi|^2 = 0.999
==== e(  11) =     6.30165 eV ==== 
     psi = 0.085*[#  18]+0.081*[#  14]+0.081*[#  15]+0.081*[#  17]+0.077*[#   2]
          +0.077*[#   3]+0.077*[#   4]+0.077*[#   6]+0.077*[#   7]+0.077*[#   8]
          +0.051*[#  32]+0.051*[#  33]+0.051*[#  34]+0.025*[#  13]+0.025*[#  16]
          +0.003*[#   9]+0.001*[#   1]+0.001*[#   5]
    |psi|^2 = 0.998
==== e(  12) =     6.91698 eV ==== 
     psi = 0.141*[#  13]+0.141*[#  16]+0.101*[#  14]+0.101*[#  15]+0.101*[#  17]
          +0.055*[#   2]+0.055*[#   3]+0.055*[#   4]+0.055*[#   6]+0.055*[#   7]
          +0.055*[#   8]+0.020*[#  32]+0.020*[#  33]+0.020*[#  34]+0.015*[#  18]
          
    |psi|^2 = 0.993
==== e(  13) =     7.02016 eV ==== 
     psi = 0.106*[#   2]+0.106*[#   3]+0.106*[#   4]+0.106*[#   6]+0.106*[#   7]
          +0.106*[#   8]+0.098*[#  31]+0.063*[#  19]+0.063*[#  20]+0.063*[#  21]
          +0.017*[#  27]+0.017*[#  28]+0.017*[#  30]+0.004*[#   1]+0.004*[#   5]
          +0.004*[#  22]+0.004*[#  26]+0.004*[#  29]
    |psi|^2 = 0.998
==== e(  14) =     7.32859 eV ==== 
     psi = 0.293*[#  13]+0.293*[#  16]+0.055*[#   2]+0.055*[#   3]+0.055*[#   4]
          +0.055*[#   6]+0.055*[#   7]+0.055*[#   8]+0.019*[#  14]+0.019*[#  15]
          +0.019*[#  17]+0.008*[#  32]+0.008*[#  33]+0.008*[#  34]
    |psi|^2 = 0.996
==== e(  15) =     8.56683 eV ==== 
     psi = 0.236*[#  14]+0.236*[#  15]+0.236*[#  17]+0.106*[#  13]+0.106*[#  16]
          +0.010*[#   2]+0.010*[#   3]+0.010*[#   4]+0.010*[#   6]+0.010*[#   7]
          +0.010*[#   8]+0.005*[#   1]+0.005*[#   5]+0.004*[#  18]
    |psi|^2 = 0.993
==== e(  16) =     8.67094 eV ==== 
     psi = 0.126*[#   2]+0.126*[#   3]+0.126*[#   4]+0.126*[#   6]+0.126*[#   7]
          +0.126*[#   8]+0.037*[#  19]+0.037*[#  20]+0.037*[#  21]+0.030*[#  26]
          +0.030*[#  29]+0.026*[#  31]+0.011*[#  27]+0.011*[#  28]+0.011*[#  30]
          +0.003*[#   1]+0.003*[#   5]
    |psi|^2 = 0.993
==== e(  17) =     9.33041 eV ==== 
     psi = 0.134*[#   2]+0.134*[#   3]+0.134*[#   4]+0.134*[#   6]+0.134*[#   7]
          +0.134*[#   8]+0.046*[#  26]+0.046*[#  29]+0.023*[#  19]+0.023*[#  20]
          +0.023*[#  21]+0.009*[#  27]+0.009*[#  28]+0.009*[#  30]
    |psi|^2 = 0.996
==== e(  18) =     9.35616 eV ==== 
     psi = 0.300*[#  14]+0.300*[#  15]+0.300*[#  17]+0.048*[#  13]+0.048*[#  16]
          
    |psi|^2 = 0.998
==== e(  19) =     9.98456 eV ==== 
     psi = 0.226*[#  14]+0.226*[#  15]+0.226*[#  17]+0.041*[#  18]+0.040*[#   2]
          +0.040*[#   3]+0.040*[#   4]+0.040*[#   6]+0.040*[#   7]+0.040*[#   8]
          +0.006*[#  13]+0.006*[#  16]+0.006*[#  32]+0.006*[#  33]+0.006*[#  34]
          +0.003*[#   1]+0.003*[#   5]
    |psi|^2 = 0.997
==== e(  20) =    11.42964 eV ==== 
     psi = 0.200*[#  13]+0.200*[#  16]+0.073*[#   2]+0.073*[#   3]+0.073*[#   4]
          +0.073*[#   6]+0.073*[#   7]+0.073*[#   8]+0.023*[#  32]+0.023*[#  33]
          +0.023*[#  34]+0.022*[#   1]+0.022*[#   5]+0.012*[#  14]+0.012*[#  15]
          +0.012*[#  17]+0.007*[#  18]
    |psi|^2 = 0.999
==== e(  21) =    11.82542 eV ==== 
     psi = 0.158*[#  13]+0.158*[#  16]+0.099*[#   2]+0.099*[#   3]+0.099*[#   4]
          +0.099*[#   6]+0.099*[#   7]+0.099*[#   8]+0.017*[#  32]+0.017*[#  33]
          +0.017*[#  34]+0.013*[#  14]+0.013*[#  15]+0.013*[#  17]
    |psi|^2 = 0.999
==== e(  22) =    13.76423 eV ==== 
     psi = 0.269*[#  27]+0.269*[#  28]+0.269*[#  30]+0.018*[#  26]+0.018*[#  29]
          +0.013*[#   2]+0.013*[#   3]+0.013*[#   4]+0.013*[#   6]+0.013*[#   7]
          +0.013*[#   8]+0.007*[#  19]+0.007*[#  20]+0.007*[#  21]+0.005*[#  31]
          +0.005*[#   1]+0.005*[#   5]
    |psi|^2 = 0.960
==== e(  23) =    14.86416 eV ==== 
     psi = 0.312*[#  27]+0.312*[#  28]+0.312*[#  30]+0.007*[#   2]+0.007*[#   3]
          +0.007*[#   4]+0.007*[#   6]+0.007*[#   7]+0.007*[#   8]+0.006*[#  26]
          +0.006*[#  29]
    |psi|^2 = 0.992
==== e(  24) =    16.62042 eV ==== 
     psi = 0.305*[#  27]+0.305*[#  28]+0.305*[#  30]+0.006*[#   2]+0.006*[#   3]
          +0.006*[#   4]+0.006*[#   6]+0.006*[#   7]+0.006*[#   8]+0.006*[#  26]
          +0.006*[#  29]+0.005*[#  19]+0.005*[#  20]+0.005*[#  21]+0.002*[#   1]
          +0.002*[#   5]
    |psi|^2 = 0.984
==== e(  25) =    17.25823 eV ==== 
     psi = 0.394*[#  26]+0.394*[#  29]+0.026*[#   1]+0.026*[#   5]+0.018*[#  27]
          +0.018*[#  28]+0.018*[#  30]+0.017*[#  19]+0.017*[#  20]+0.017*[#  21]
          +0.007*[#   2]+0.007*[#   3]+0.007*[#   4]+0.007*[#   6]+0.007*[#   7]
          +0.007*[#   8]+0.003*[#  31]
    |psi|^2 = 0.992
==== e(  26) =    17.33584 eV ==== 
     psi = 0.442*[#  26]+0.442*[#  29]+0.011*[#   2]+0.011*[#   3]+0.011*[#   4]
          +0.011*[#   6]+0.011*[#   7]+0.011*[#   8]+0.009*[#  27]+0.009*[#  28]
          +0.009*[#  30]+0.005*[#  19]+0.005*[#  20]+0.005*[#  21]
    |psi|^2 = 0.992

 k =   0.2041241452  0.2041241452 -0.2041241452
==== e(   1) =   -75.82311 eV ==== 
     psi = 0.980*[#   9]+0.004*[#  19]+0.004*[#  20]+0.004*[#  21]+0.002*[#  32]
          +0.002*[#  33]+0.002*[#  34]
    |psi|^2 = 1.000
==== e(   2) =   -71.37140 eV ==== 
     psi = 0.980*[#  22]+0.004*[#  32]+0.004*[#  33]+0.004*[#  34]+0.002*[#  19]
          +0.002*[#  20]+0.002*[#  21]
    |psi|^2 = 1.000
==== e(   3) =   -42.06580 eV ==== 
     psi = 0.331*[#  10]+0.331*[#  11]+0.331*[#  12]+0.001*[#  32]+0.001*[#  33]
          +0.001*[#  34]
    |psi|^2 = 1.000
==== e(   4) =   -41.76633 eV ==== 
     psi = 0.333*[#  10]+0.333*[#  11]+0.333*[#  12]
    |psi|^2 = 1.000
==== e(   5) =   -41.75935 eV ==== 
     psi = 0.332*[#  10]+0.332*[#  11]+0.332*[#  12]
    |psi|^2 = 1.000
==== e(   6) =   -37.58151 eV ==== 
     psi = 0.331*[#  23]+0.331*[#  24]+0.331*[#  25]+0.002*[#  19]+0.002*[#  20]
          +0.002*[#  21]
    |psi|^2 = 1.000
==== e(   7) =   -37.50666 eV ==== 
     psi = 0.333*[#  23]+0.333*[#  24]+0.333*[#  25]
    |psi|^2 = 1.000
==== e(   8) =   -37.49767 eV ==== 
     psi = 0.332*[#  23]+0.332*[#  24]+0.332*[#  25]
    |psi|^2 = 1.000
==== e(   9) =    -5.83783 eV ==== 
     psi = 0.333*[#   1]+0.333*[#   5]+0.093*[#  18]+0.088*[#  31]+0.024*[#  19]
          +0.024*[#  20]+0.024*[#  21]+0.024*[#  32]+0.024*[#  33]+0.024*[#  34]
          +0.003*[#  22]+0.003*[#   9]
    |psi|^2 = 1.000
==== e(  10) =    -4.94332 eV ==== 
     psi = 0.387*[#   1]+0.387*[#   5]+0.034*[#  19]+0.034*[#  20]+0.034*[#  21]
          +0.033*[#  32]+0.033*[#  33]+0.033*[#  34]+0.004*[#  13]+0.004*[#  16]
          +0.003*[#  18]+0.003*[#  31]+0.002*[#  26]+0.002*[#  29]
    |psi|^2 = 0.999
==== e(  11) =     6.06196 eV ==== 
     psi = 0.091*[#  14]+0.091*[#  15]+0.091*[#  17]+0.080*[#   2]+0.080*[#   3]
          +0.080*[#   4]+0.080*[#   6]+0.080*[#   7]+0.080*[#   8]+0.074*[#  31]
          +0.073*[#  18]+0.014*[#  19]+0.014*[#  20]+0.014*[#  21]+0.012*[#  32]
          +0.012*[#  33]+0.012*[#  34]+0.005*[#  27]+0.005*[#  28]+0.005*[#  30]
          +0.002*[#  22]+0.002*[#   9]+0.001*[#   1]+0.001*[#   5]+0.001*[#  13]
          +0.001*[#  16]
    |psi|^2 = 0.997
==== e(  12) =     7.11071 eV ==== 
     psi = 0.247*[#  13]+0.247*[#  16]+0.055*[#   2]+0.055*[#   3]+0.055*[#   4]
          +0.055*[#   6]+0.055*[#   7]+0.055*[#   8]+0.040*[#  14]+0.040*[#  15]
          +0.040*[#  17]+0.007*[#  32]+0.007*[#  33]+0.007*[#  34]+0.005*[#  19]
          +0.005*[#  20]+0.005*[#  21]+0.003*[#  26]+0.003*[#  29]+0.002*[#  18]
          
    |psi|^2 = 0.994
==== e(  13) =     7.33806 eV ==== 
     psi = 0.316*[#  13]+0.316*[#  16]+0.052*[#   2]+0.052*[#   3]+0.052*[#   4]
          +0.052*[#   6]+0.052*[#   7]+0.052*[#   8]+0.011*[#  14]+0.011*[#  15]
          +0.011*[#  17]+0.003*[#  26]+0.003*[#  29]+0.002*[#  32]+0.002*[#  33]
          +0.002*[#  34]+0.002*[#  19]+0.002*[#  20]+0.002*[#  21]+0.001*[#  27]
          +0.001*[#  28]+0.001*[#  30]
    |psi|^2 = 0.995
==== e(  14) =     8.25266 eV ==== 
     psi = 0.173*[#  14]+0.173*[#  15]+0.173*[#  17]+0.050*[#   2]+0.050*[#   3]
          +0.050*[#   4]+0.050*[#   6]+0.050*[#   7]+0.050*[#   8]+0.041*[#  18]
          +0.039*[#  13]+0.039*[#  16]+0.016*[#  31]+0.009*[#   1]+0.009*[#   5]
          +0.006*[#  27]+0.006*[#  28]+0.006*[#  30]+0.001*[#  32]+0.001*[#  33]
          +0.001*[#  34]
    |psi|^2 = 0.992
==== e(  15) =     8.68962 eV ==== 
     psi = 0.262*[#  14]+0.262*[#  15]+0.262*[#  17]+0.026*[#  13]+0.026*[#  16]
          +0.022*[#   2]+0.022*[#   3]+0.022*[#   4]+0.022*[#   6]+0.022*[#   7]
          +0.022*[#   8]+0.006*[#  26]+0.006*[#  29]+0.002*[#  19]+0.002*[#  20]
          +0.002*[#  21]+0.002*[#  27]+0.002*[#  28]+0.002*[#  30]
    |psi|^2 = 0.992
==== e(  16) =     9.03619 eV ==== 
     psi = 0.224*[#  14]+0.224*[#  15]+0.224*[#  17]+0.033*[#   2]+0.033*[#   3]
          +0.033*[#   4]+0.033*[#   6]+0.033*[#   7]+0.033*[#   8]+0.033*[#  18]
          +0.022*[#  13]+0.022*[#  16]+0.013*[#  31]+0.005*[#  27]+0.005*[#  28]
          +0.005*[#  30]+0.002*[#   1]+0.002*[#   5]+0.002*[#  32]+0.002*[#  33]
          +0.002*[#  34]
    |psi|^2 = 0.994
==== e(  17) =     9.59452 eV ==== 
     psi = 0.106*[#   2]+0.106*[#   3]+0.106*[#   4]+0.106*[#   6]+0.106*[#   7]
          +0.106*[#   8]+0.040*[#  31]+0.038*[#  13]+0.038*[#  14]+0.038*[#  15]
          +0.038*[#  16]+0.038*[#  17]+0.018*[#  26]+0.018*[#  29]+0.015*[#  18]
          +0.014*[#   1]+0.014*[#   5]+0.007*[#  27]+0.007*[#  28]+0.007*[#  30]
          +0.006*[#  19]+0.006*[#  20]+0.006*[#  21]
    |psi|^2 = 0.993
==== e(  18) =    10.09265 eV ==== 
     psi = 0.102*[#   2]+0.102*[#   3]+0.102*[#   4]+0.102*[#   6]+0.102*[#   7]
          +0.102*[#   8]+0.082*[#  14]+0.082*[#  15]+0.082*[#  17]+0.024*[#  26]
          +0.024*[#  29]+0.019*[#  31]+0.013*[#  18]+0.009*[#   1]+0.009*[#   5]
          +0.007*[#  13]+0.007*[#  16]+0.006*[#  19]+0.006*[#  20]+0.006*[#  21]
          +0.001*[#  32]+0.001*[#  33]+0.001*[#  34]
    |psi|^2 = 0.995
==== e(  19) =    10.32175 eV ==== 
     psi = 0.118*[#   2]+0.118*[#   3]+0.118*[#   4]+0.118*[#   6]+0.118*[#   7]
          +0.118*[#   8]+0.056*[#  14]+0.056*[#  15]+0.056*[#  17]+0.042*[#  26]
          +0.042*[#  29]+0.008*[#  13]+0.008*[#  16]+0.005*[#  19]+0.005*[#  20]
          +0.005*[#  21]
    |psi|^2 = 0.995
==== e(  20) =    11.75642 eV ==== 
     psi = 0.135*[#  13]+0.135*[#  16]+0.107*[#   2]+0.107*[#   3]+0.107*[#   4]
          +0.107*[#   6]+0.107*[#   7]+0.107*[#   8]+0.012*[#  32]+0.012*[#  33]
          +0.012*[#  34]+0.007*[#  14]+0.007*[#  15]+0.007*[#  17]+0.006*[#   1]
          +0.006*[#   5]+0.003*[#  27]+0.003*[#  28]+0.003*[#  30]+0.002*[#  18]
          +0.002*[#  26]+0.002*[#  29]
    |psi|^2 = 0.996
==== e(  21) =    11.76375 eV ==== 
     psi = 0.146*[#  13]+0.146*[#  16]+0.105*[#   2]+0.105*[#   3]+0.105*[#   4]
          +0.105*[#   6]+0.105*[#   7]+0.105*[#   8]+0.012*[#  27]+0.012*[#  28]
          +0.012*[#  30]+0.009*[#  32]+0.009*[#  33]+0.009*[#  34]+0.004*[#  26]
          +0.004*[#  29]
    |psi|^2 = 0.996
==== e(  22) =    13.92079 eV ==== 
     psi = 0.285*[#  27]+0.285*[#  28]+0.285*[#  30]+0.025*[#  26]+0.025*[#  29]
          +0.006*[#  19]+0.006*[#  20]+0.006*[#  21]+0.006*[#   1]+0.006*[#   5]
          +0.005*[#   2]+0.005*[#   3]+0.005*[#   4]+0.005*[#   6]+0.005*[#   7]
          +0.005*[#   8]+0.003*[#  31]+0.002*[#  18]
    |psi|^2 = 0.973
==== e(  23) =    14.28084 eV ==== 
     psi = 0.300*[#  27]+0.300*[#  28]+0.300*[#  30]+0.018*[#  26]+0.018*[#  29]
          +0.007*[#   2]+0.007*[#   3]+0.007*[#   4]+0.007*[#   6]+0.007*[#   7]
          +0.007*[#   8]+0.002*[#  14]+0.002*[#  15]+0.002*[#  17]
    |psi|^2 = 0.982
==== e(  24) =    16.00476 eV ==== 
     psi = 0.160*[#  18]+0.116*[#  31]+0.098*[#   1]+0.098*[#   5]+0.077*[#  27]
          +0.077*[#  28]+0.077*[#  30]+0.033*[#  32]+0.033*[#  33]+0.033*[#  34]
          +0.020*[#   2]+0.020*[#   3]+0.020*[#   4]+0.020*[#   6]+0.020*[#   7]
          +0.020*[#   8]+0.019*[#  19]+0.019*[#  20]+0.019*[#  21]+0.002*[#   9]
          +0.002*[#  22]+0.002*[#  26]+0.002*[#  29]
    |psi|^2 = 0.987
==== e(  25) =    16.33736 eV ==== 
     psi = 0.225*[#  27]+0.225*[#  28]+0.225*[#  30]+0.051*[#  18]+0.046*[#  31]
          +0.029*[#   1]+0.029*[#   5]+0.017*[#   2]+0.017*[#   3]+0.017*[#   4]
          +0.017*[#   6]+0.017*[#   7]+0.017*[#   8]+0.012*[#  19]+0.012*[#  20]
          +0.012*[#  21]+0.002*[#  32]+0.002*[#  33]+0.002*[#  34]
    |psi|^2 = 0.979
==== e(  26) =    17.15147 eV ==== 
     psi = 0.390*[#  26]+0.390*[#  29]+0.017*[#   1]+0.017*[#   5]+0.016*[#  27]
          +0.016*[#  28]+0.016*[#  30]+0.014*[#  19]+0.014*[#  20]+0.014*[#  21]
          +0.011*[#   2]+0.011*[#   3]+0.011*[#   4]+0.011*[#   6]+0.011*[#   7]
          +0.011*[#   8]+0.004*[#  32]+0.004*[#  33]+0.004*[#  34]+0.001*[#  13]
          +0.001*[#  16]+0.001*[#  31]
    |psi|^2 = 0.988

 k =   0.5103103631  0.1020620726 -0.3061862178
==== e(   1) =   -75.82191 eV ==== 
     psi = 0.980*[#   9]+0.004*[#  19]+0.004*[#  20]+0.004*[#  21]+0.002*[#  32]
          +0.002*[#  33]+0.002*[#  34]
    |psi|^2 = 1.000
==== e(   2) =   -71.36990 eV ==== 
     psi = 0.980*[#  22]+0.004*[#  32]+0.004*[#  33]+0.004*[#  34]+0.002*[#  19]
          +0.002*[#  20]+0.002*[#  21]
    |psi|^2 = 1.000
==== e(   3) =   -42.06379 eV ==== 
     psi = 0.332*[#  10]+0.332*[#  11]+0.332*[#  12]
    |psi|^2 = 1.000
==== e(   4) =   -41.77849 eV ==== 
     psi = 0.332*[#  10]+0.332*[#  11]+0.332*[#  12]
    |psi|^2 = 1.000
==== e(   5) =   -41.76458 eV ==== 
     psi = 0.333*[#  10]+0.333*[#  11]+0.333*[#  12]
    |psi|^2 = 1.000
==== e(   6) =   -37.57881 eV ==== 
     psi = 0.332*[#  23]+0.332*[#  24]+0.332*[#  25]
    |psi|^2 = 1.000
==== e(   7) =   -37.52223 eV ==== 
     psi = 0.332*[#  23]+0.332*[#  24]+0.332*[#  25]
    |psi|^2 = 1.000
==== e(   8) =   -37.50425 eV ==== 
     psi = 0.333*[#  23]+0.333*[#  24]+0.333*[#  25]
    |psi|^2 = 1.000
==== e(   9) =    -5.44677 eV ==== 
     psi = 0.349*[#   1]+0.349*[#   5]+0.042*[#  18]+0.040*[#  31]+0.035*[#  19]
          +0.035*[#  20]+0.035*[#  21]+0.034*[#  32]+0.034*[#  33]+0.034*[#  34]
          +0.003*[#  22]+0.002*[#   9]+0.001*[#  13]+0.001*[#  16]
    |psi|^2 = 1.000
==== e(  10) =    -4.92001 eV ==== 
     psi = 0.407*[#   1]+0.407*[#   5]+0.026*[#  19]+0.026*[#  20]+0.026*[#  21]
          +0.025*[#  32]+0.025*[#  33]+0.025*[#  34]+0.009*[#  13]+0.009*[#  16]
          +0.004*[#  26]+0.004*[#  29]+0.004*[#  18]+0.003*[#  31]
    |psi|^2 = 0.999
==== e(  11) =     6.51750 eV ==== 
     psi = 0.088*[#  13]+0.088*[#  16]+0.074*[#   2]+0.074*[#   3]+0.074*[#   4]
          +0.074*[#   6]+0.074*[#   7]+0.074*[#   8]+0.066*[#  14]+0.066*[#  15]
          +0.066*[#  17]+0.063*[#  31]+0.016*[#  32]+0.016*[#  33]+0.016*[#  34]
          +0.015*[#  19]+0.015*[#  20]+0.015*[#  21]+0.008*[#  18]+0.002*[#  27]
          +0.002*[#  28]+0.002*[#  30]+0.002*[#  22]+0.002*[#   1]+0.002*[#   5]
          
    |psi|^2 = 0.996
==== e(  12) =     7.09903 eV ==== 
     psi = 0.155*[#  13]+0.155*[#  16]+0.076*[#   2]+0.076*[#   3]+0.076*[#   4]
          +0.076*[#   6]+0.076*[#   7]+0.076*[#   8]+0.052*[#  18]+0.021*[#  14]
          +0.021*[#  15]+0.021*[#  17]+0.012*[#  19]+0.012*[#  20]+0.012*[#  21]
          +0.009*[#  31]+0.009*[#  32]+0.009*[#  33]+0.009*[#  34]+0.009*[#   1]
          +0.009*[#   5]+0.004*[#  26]+0.004*[#  27]+0.004*[#  28]+0.004*[#  29]
          +0.004*[#  30]+0.002*[#   9]
    |psi|^2 = 0.996
==== e(  13) =     7.22265 eV ==== 
     psi = 0.126*[#  13]+0.126*[#  16]+0.100*[#  14]+0.100*[#  15]+0.100*[#  17]
          +0.056*[#   2]+0.056*[#   3]+0.056*[#   4]+0.056*[#   6]+0.056*[#   7]
          +0.056*[#   8]+0.017*[#  19]+0.017*[#  20]+0.017*[#  21]+0.014*[#  18]
          +0.009*[#  32]+0.009*[#  33]+0.009*[#  34]+0.002*[#   1]+0.002*[#   5]
          +0.002*[#  26]+0.002*[#  29]+0.001*[#  27]+0.001*[#  28]+0.001*[#  30]
          
    |psi|^2 = 0.996
==== e(  14) =     7.77592 eV ==== 
     psi = 0.098*[#  13]+0.098*[#  16]+0.075*[#  14]+0.075*[#  15]+0.075*[#  17]
          +0.072*[#   2]+0.072*[#   3]+0.072*[#   4]+0.072*[#   6]+0.072*[#   7]
          +0.072*[#   8]+0.051*[#  18]+0.012*[#  26]+0.012*[#  29]+0.011*[#  32]
          +0.011*[#  33]+0.011*[#  34]+0.008*[#   1]+0.008*[#   5]+0.004*[#  27]
          +0.004*[#  28]+0.004*[#  30]+0.002*[#  19]+0.002*[#  20]+0.002*[#  21]
          +0.002*[#  31]
    |psi|^2 = 0.996
==== e(  15) =     7.98305 eV ==== 
     psi = 0.141*[#  14]+0.141*[#  15]+0.141*[#  17]+0.117*[#  13]+0.117*[#  16]
          +0.044*[#   2]+0.044*[#   3]+0.044*[#   4]+0.044*[#   6]+0.044*[#   7]
          +0.044*[#   8]+0.006*[#  26]+0.006*[#  29]+0.006*[#  19]+0.006*[#  20]
          +0.006*[#  21]+0.005*[#  32]+0.005*[#  33]+0.005*[#  34]+0.004*[#  31]
          +0.003*[#   1]+0.003*[#   5]+0.003*[#  18]+0.003*[#  27]+0.003*[#  28]
          +0.003*[#  30]
    |psi|^2 = 0.993
==== e(  16) =     9.02702 eV ==== 
     psi = 0.132*[#  14]+0.132*[#  15]+0.132*[#  17]+0.069*[#   2]+0.069*[#   3]
          +0.069*[#   4]+0.069*[#   6]+0.069*[#   7]+0.069*[#   8]+0.021*[#  13]
          +0.021*[#  16]+0.014*[#  26]+0.014*[#  29]+0.013*[#  19]+0.013*[#  20]
          +0.013*[#  21]+0.011*[#  27]+0.011*[#  28]+0.011*[#  30]+0.009*[#  32]
          +0.009*[#  33]+0.009*[#  34]+0.003*[#  31]+0.003*[#   1]+0.003*[#   5]
          +0.002*[#  18]
    |psi|^2 = 0.993
==== e(  17) =     9.23688 eV ==== 
     psi = 0.146*[#  14]+0.146*[#  15]+0.146*[#  17]+0.074*[#   2]+0.074*[#   3]
          +0.074*[#   4]+0.074*[#   6]+0.074*[#   7]+0.074*[#   8]+0.013*[#  18]
          +0.012*[#  19]+0.012*[#  20]+0.012*[#  21]+0.009*[#  32]+0.009*[#  33]
          +0.009*[#  34]+0.007*[#  27]+0.007*[#  28]+0.007*[#  30]+0.006*[#  31]
          +0.005*[#  26]+0.005*[#  29]
    |psi|^2 = 0.996
==== e(  18) =     9.77858 eV ==== 
     psi = 0.202*[#  14]+0.202*[#  15]+0.202*[#  17]+0.045*[#   2]+0.045*[#   3]
          +0.045*[#   4]+0.045*[#   6]+0.045*[#   7]+0.045*[#   8]+0.023*[#  31]
          +0.015*[#  13]+0.015*[#  16]+0.011*[#  18]+0.008*[#   1]+0.008*[#   5]
          +0.006*[#  26]+0.006*[#  29]+0.006*[#  32]+0.006*[#  33]+0.006*[#  34]
          +0.002*[#  27]+0.002*[#  28]+0.002*[#  30]+0.001*[#  19]+0.001*[#  20]
          +0.001*[#  21]
    |psi|^2 = 0.997
==== e(  19) =    10.45523 eV ==== 
     psi = 0.099*[#   2]+0.099*[#   3]+0.099*[#   4]+0.099*[#   6]+0.099*[#   7]
          +0.099*[#   8]+0.092*[#  14]+0.092*[#  15]+0.092*[#  17]+0.021*[#  13]
          +0.021*[#  16]+0.013*[#  26]+0.013*[#  29]+0.011*[#  31]+0.007*[#  19]
          +0.007*[#  20]+0.007*[#  21]+0.004*[#  32]+0.004*[#  33]+0.004*[#  34]
          +0.003*[#  27]+0.003*[#  28]+0.003*[#  30]
    |psi|^2 = 0.996
==== e(  20) =    11.19121 eV ==== 
     psi = 0.179*[#  13]+0.179*[#  16]+0.080*[#   2]+0.080*[#   3]+0.080*[#   4]
          +0.080*[#   6]+0.080*[#   7]+0.080*[#   8]+0.031*[#  31]+0.020*[#  26]
          +0.020*[#  29]+0.010*[#   1]+0.010*[#   5]+0.009*[#  27]+0.009*[#  28]
          +0.009*[#  30]+0.005*[#  19]+0.005*[#  20]+0.005*[#  21]+0.004*[#  14]
          +0.004*[#  15]+0.004*[#  17]+0.003*[#  32]+0.003*[#  33]+0.003*[#  34]
          
    |psi|^2 = 0.996
==== e(  21) =    11.72664 eV ==== 
     psi = 0.158*[#  13]+0.158*[#  16]+0.096*[#   2]+0.096*[#   3]+0.096*[#   4]
          +0.096*[#   6]+0.096*[#   7]+0.096*[#   8]+0.015*[#  26]+0.015*[#  29]
          +0.009*[#  32]+0.009*[#  33]+0.009*[#  34]+0.008*[#   1]+0.008*[#   5]
          +0.006*[#  14]+0.006*[#  15]+0.006*[#  17]+0.002*[#  27]+0.002*[#  28]
          +0.002*[#  30]+0.001*[#  31]+0.001*[#  19]+0.001*[#  20]+0.001*[#  21]
          
    |psi|^2 = 0.997
==== e(  22) =    14.13346 eV ==== 
     psi = 0.272*[#  27]+0.272*[#  28]+0.272*[#  30]+0.020*[#   2]+0.020*[#   3]
          +0.020*[#   4]+0.020*[#   6]+0.020*[#   7]+0.020*[#   8]+0.010*[#  26]
          +0.010*[#  29]+0.002*[#  13]+0.002*[#  16]+0.002*[#  19]+0.002*[#  20]
          +0.002*[#  21]
    |psi|^2 = 0.975
==== e(  23) =    14.42337 eV ==== 
     psi = 0.306*[#  27]+0.306*[#  28]+0.306*[#  30]+0.014*[#  26]+0.014*[#  29]
          +0.004*[#   2]+0.004*[#   3]+0.004*[#   4]+0.004*[#   6]+0.004*[#   7]
          +0.004*[#   8]+0.002*[#   1]+0.002*[#   5]+0.002*[#  18]+0.001*[#  31]
          +0.001*[#  19]+0.001*[#  20]+0.001*[#  21]
    |psi|^2 = 0.982
==== e(  24) =    16.34964 eV ==== 
     psi = 0.270*[#  27]+0.270*[#  28]+0.270*[#  30]+0.031*[#  26]+0.031*[#  29]
          +0.015*[#  18]+0.009*[#  32]+0.009*[#  33]+0.009*[#  34]+0.008*[#   1]
          +0.008*[#   5]+0.006*[#   2]+0.006*[#   3]+0.006*[#   4]+0.006*[#   6]
          +0.006*[#   7]+0.006*[#   8]+0.001*[#  31]+0.001*[#  19]+0.001*[#  20]
          +0.001*[#  21]
    |psi|^2 = 0.975
==== e(  25) =    16.79639 eV ==== 
     psi = 0.274*[#  26]+0.274*[#  29]+0.090*[#  18]+0.041*[#  27]+0.041*[#  28]
          +0.041*[#  30]+0.035*[#   1]+0.035*[#   5]+0.013*[#   2]+0.013*[#   3]
          +0.013*[#   4]+0.013*[#   6]+0.013*[#   7]+0.013*[#   8]+0.011*[#  31]
          +0.011*[#  19]+0.011*[#  20]+0.011*[#  21]+0.010*[#  32]+0.010*[#  33]
          +0.010*[#  34]+0.002*[#  13]+0.002*[#  16]
    |psi|^2 = 0.990
==== e(  26) =    17.30382 eV ==== 
     psi = 0.418*[#  26]+0.418*[#  29]+0.013*[#   2]+0.013*[#   3]+0.013*[#   4]
          +0.013*[#   6]+0.013*[#   7]+0.013*[#   8]+0.010*[#  27]+0.010*[#  28]
          +0.010*[#  30]+0.008*[#   1]+0.008*[#   5]+0.008*[#  19]+0.008*[#  20]
          +0.008*[#  21]+0.001*[#  13]+0.001*[#  16]
    |psi|^2 = 0.991

 k =  -1.0206207262  0.6123724357  0.2041241452
==== e(   1) =   -75.82070 eV ==== 
     psi = 0.989*[#   9]+0.001*[#  32]+0.001*[#  33]+0.001*[#  34]+0.001*[#  18]
          
    |psi|^2 = 1.000
==== e(   2) =   -71.36840 eV ==== 
     psi = 0.989*[#  22]+0.001*[#  19]+0.001*[#  20]+0.001*[#  21]
    |psi|^2 = 1.000
==== e(   3) =   -42.06178 eV ==== 
     psi = 0.332*[#  10]+0.332*[#  11]+0.332*[#  12]
    |psi|^2 = 1.000
==== e(   4) =   -41.78938 eV ==== 
     psi = 0.332*[#  10]+0.332*[#  11]+0.332*[#  12]
    |psi|^2 = 1.000
==== e(   5) =   -41.77102 eV ==== 
     psi = 0.333*[#  10]+0.333*[#  11]+0.333*[#  12]
    |psi|^2 = 1.000
==== e(   6) =   -37.57610 eV ==== 
     psi = 0.332*[#  23]+0.332*[#  24]+0.332*[#  25]
    |psi|^2 = 1.000
==== e(   7) =   -37.53616 eV ==== 
     psi = 0.331*[#  23]+0.331*[#  24]+0.331*[#  25]+0.001*[#  32]+0.001*[#  33]
          +0.001*[#  34]
    |psi|^2 = 1.000
==== e(   8) =   -37.51244 eV ==== 
     psi = 0.333*[#  23]+0.333*[#  24]+0.333*[#  25]
    |psi|^2 = 1.000
==== e(   9) =    -5.04025 eV ==== 
     psi = 0.393*[#   1]+0.393*[#   5]+0.032*[#  32]+0.032*[#  33]+0.032*[#  34]
          +0.022*[#  19]+0.022*[#  20]+0.022*[#  21]+0.011*[#  18]+0.011*[#  31]
          +0.009*[#  13]+0.009*[#  16]+0.003*[#  26]+0.003*[#  29]
    |psi|^2 = 0.999
==== e(  10) =    -4.87043 eV ==== 
     psi = 0.412*[#   1]+0.412*[#   5]+0.030*[#  19]+0.030*[#  20]+0.030*[#  21]
          +0.019*[#  32]+0.019*[#  33]+0.019*[#  34]+0.007*[#  13]+0.007*[#  16]
          +0.006*[#  26]+0.006*[#  29]
    |psi|^2 = 0.999
==== e(  11) =     6.51130 eV ==== 
     psi = 0.107*[#  13]+0.107*[#  16]+0.078*[#   2]+0.078*[#   3]+0.078*[#   4]
          +0.078*[#   6]+0.078*[#   7]+0.078*[#   8]+0.038*[#  14]+0.038*[#  15]
          +0.038*[#  17]+0.034*[#  18]+0.030*[#  31]+0.028*[#  32]+0.028*[#  33]
          +0.028*[#  34]+0.008*[#  19]+0.008*[#  20]+0.008*[#  21]+0.004*[#   1]
          +0.004*[#   5]+0.003*[#  27]+0.003*[#  28]+0.003*[#  30]+0.002*[#  26]
          +0.002*[#  29]+0.002*[#   9]+0.002*[#  22]
    |psi|^2 = 0.997
==== e(  12) =     6.69734 eV ==== 
     psi = 0.086*[#  14]+0.086*[#  15]+0.086*[#  17]+0.079*[#   2]+0.079*[#   3]
          +0.079*[#   4]+0.079*[#   6]+0.079*[#   7]+0.079*[#   8]+0.046*[#  18]
          +0.040*[#  31]+0.022*[#  19]+0.022*[#  20]+0.022*[#  21]+0.020*[#  32]
          +0.020*[#  33]+0.020*[#  34]+0.017*[#  13]+0.017*[#  16]+0.004*[#  27]
          +0.004*[#  28]+0.004*[#  30]+0.001*[#  22]+0.001*[#  26]+0.001*[#  29]
          
    |psi|^2 = 0.997
==== e(  13) =     7.15452 eV ==== 
     psi = 0.191*[#  13]+0.191*[#  16]+0.062*[#   2]+0.062*[#   3]+0.062*[#   4]
          +0.062*[#   6]+0.062*[#   7]+0.062*[#   8]+0.049*[#  14]+0.049*[#  15]
          +0.049*[#  17]+0.017*[#  32]+0.017*[#  33]+0.017*[#  34]+0.011*[#  19]
          +0.011*[#  20]+0.011*[#  21]+0.006*[#  31]+0.002*[#  27]+0.002*[#  28]
          +0.002*[#  30]
    |psi|^2 = 0.996
==== e(  14) =     7.81846 eV ==== 
     psi = 0.093*[#  13]+0.093*[#  16]+0.085*[#  14]+0.085*[#  15]+0.085*[#  17]
          +0.066*[#   2]+0.066*[#   3]+0.066*[#   4]+0.066*[#   6]+0.066*[#   7]
          +0.066*[#   8]+0.030*[#  19]+0.030*[#  20]+0.030*[#  21]+0.015*[#  26]
          +0.015*[#  29]+0.004*[#   1]+0.004*[#   5]+0.004*[#  27]+0.004*[#  28]
          +0.004*[#  30]+0.002*[#  32]+0.002*[#  33]+0.002*[#  34]+0.002*[#  18]
          +0.002*[#  31]
    |psi|^2 = 0.995
==== e(  15) =     7.95428 eV ==== 
     psi = 0.105*[#  13]+0.105*[#  16]+0.081*[#  14]+0.081*[#  15]+0.081*[#  17]
          +0.067*[#   2]+0.067*[#   3]+0.067*[#   4]+0.067*[#   6]+0.067*[#   7]
          +0.067*[#   8]+0.032*[#  18]+0.011*[#  19]+0.011*[#  20]+0.011*[#  21]
          +0.010*[#  26]+0.010*[#  29]+0.008*[#  32]+0.008*[#  33]+0.008*[#  34]
          +0.006*[#  27]+0.006*[#  28]+0.006*[#  30]+0.005*[#   1]+0.005*[#   5]
          
    |psi|^2 = 0.995
==== e(  16) =     8.32527 eV ==== 
     psi = 0.088*[#   2]+0.088*[#   3]+0.088*[#   4]+0.088*[#   6]+0.088*[#   7]
          +0.088*[#   8]+0.059*[#  14]+0.059*[#  15]+0.059*[#  17]+0.045*[#  13]
          +0.045*[#  16]+0.024*[#  19]+0.024*[#  20]+0.024*[#  21]+0.016*[#  32]
          +0.016*[#  33]+0.016*[#  34]+0.014*[#  31]+0.013*[#  27]+0.013*[#  28]
          +0.013*[#  30]+0.008*[#  26]+0.008*[#  29]+0.003*[#   1]+0.003*[#   5]
          
    |psi|^2 = 0.996
==== e(  17) =     9.35325 eV ==== 
     psi = 0.155*[#  14]+0.155*[#  15]+0.155*[#  17]+0.069*[#   2]+0.069*[#   3]
          +0.069*[#   4]+0.069*[#   6]+0.069*[#   7]+0.069*[#   8]+0.015*[#  26]
          +0.015*[#  29]+0.012*[#  19]+0.012*[#  20]+0.012*[#  21]+0.011*[#  18]
          +0.006*[#  32]+0.006*[#  33]+0.006*[#  34]+0.005*[#  13]+0.005*[#  16]
          +0.004*[#  27]+0.004*[#  28]+0.004*[#  30]
    |psi|^2 = 0.996
==== e(  18) =     9.58976 eV ==== 
     psi = 0.261*[#  14]+0.261*[#  15]+0.261*[#  17]+0.023*[#   2]+0.023*[#   3]
          +0.023*[#   4]+0.023*[#   6]+0.023*[#   7]+0.023*[#   8]+0.018*[#  13]
          +0.018*[#  16]+0.009*[#  18]+0.005*[#  26]+0.005*[#  29]+0.004*[#  19]
          +0.004*[#  20]+0.004*[#  21]+0.002*[#  27]+0.002*[#  28]+0.002*[#  30]
          
    |psi|^2 = 0.997
==== e(  19) =    10.31081 eV ==== 
     psi = 0.156*[#  14]+0.156*[#  15]+0.156*[#  17]+0.076*[#   2]+0.076*[#   3]
          +0.076*[#   4]+0.076*[#   6]+0.076*[#   7]+0.076*[#   8]+0.009*[#  18]
          +0.008*[#  19]+0.008*[#  20]+0.008*[#  21]+0.007*[#  32]+0.007*[#  33]
          +0.007*[#  34]+0.004*[#  31]+0.003*[#  27]+0.003*[#  28]+0.003*[#  30]
          
    |psi|^2 = 0.996
==== e(  20) =    11.22062 eV ==== 
     psi = 0.202*[#  13]+0.202*[#  16]+0.073*[#   2]+0.073*[#   3]+0.073*[#   4]
          +0.073*[#   6]+0.073*[#   7]+0.073*[#   8]+0.031*[#  31]+0.017*[#  26]
          +0.017*[#  29]+0.013*[#   1]+0.013*[#   5]+0.011*[#  32]+0.011*[#  33]
          +0.011*[#  34]+0.010*[#  14]+0.010*[#  15]+0.010*[#  17]
    |psi|^2 = 0.997
==== e(  21) =    11.52226 eV ==== 
     psi = 0.190*[#  13]+0.190*[#  16]+0.082*[#   2]+0.082*[#   3]+0.082*[#   4]
          +0.082*[#   6]+0.082*[#   7]+0.082*[#   8]+0.014*[#  26]+0.014*[#  29]
          +0.013*[#  31]+0.012*[#  32]+0.012*[#  33]+0.012*[#  34]+0.010*[#   1]
          +0.010*[#   5]+0.005*[#  14]+0.005*[#  15]+0.005*[#  17]+0.002*[#  18]
          +0.002*[#  27]+0.002*[#  28]+0.002*[#  30]
    |psi|^2 = 0.997
==== e(  22) =    14.15899 eV ==== 
     psi = 0.274*[#  27]+0.274*[#  28]+0.274*[#  30]+0.020*[#   2]+0.020*[#   3]
          +0.020*[#   4]+0.020*[#   6]+0.020*[#   7]+0.020*[#   8]+0.009*[#  26]
          +0.009*[#  29]+0.002*[#  19]+0.002*[#  20]+0.002*[#  21]
    |psi|^2 = 0.972
==== e(  23) =    14.69218 eV ==== 
     psi = 0.305*[#  27]+0.305*[#  28]+0.305*[#  30]+0.009*[#  26]+0.009*[#  29]
          +0.008*[#   2]+0.008*[#   3]+0.008*[#   4]+0.008*[#   6]+0.008*[#   7]
          +0.008*[#   8]+0.003*[#  18]
    |psi|^2 = 0.988
==== e(  24) =    16.54995 eV ==== 
     psi = 0.306*[#  27]+0.306*[#  28]+0.306*[#  30]+0.007*[#   2]+0.007*[#   3]
          +0.007*[#   4]+0.007*[#   6]+0.007*[#   7]+0.007*[#   8]+0.004*[#  19]
          +0.004*[#  20]+0.004*[#  21]+0.003*[#  26]+0.003*[#  29]
    |psi|^2 = 0.980
==== e(  25) =    17.11825 eV ==== 
     psi = 0.404*[#  26]+0.404*[#  29]+0.051*[#  18]+0.015*[#   1]+0.015*[#   5]
          +0.008*[#   2]+0.008*[#   3]+0.008*[#   4]+0.008*[#   6]+0.008*[#   7]
          +0.008*[#   8]+0.008*[#  27]+0.008*[#  28]+0.008*[#  30]+0.006*[#  19]
          +0.006*[#  20]+0.006*[#  21]+0.003*[#  32]+0.003*[#  33]+0.003*[#  34]
          +0.002*[#  13]+0.002*[#  16]
    |psi|^2 = 0.992
==== e(  26) =    17.35256 eV ==== 
     psi = 0.419*[#  26]+0.419*[#  29]+0.013*[#   1]+0.013*[#   5]+0.010*[#   2]
          +0.010*[#   3]+0.010*[#   4]+0.010*[#   6]+0.010*[#   7]+0.010*[#   8]
          +0.010*[#  27]+0.010*[#  28]+0.010*[#  30]+0.009*[#  19]+0.009*[#  20]
          +0.009*[#  21]+0.002*[#  18]+0.001*[#  32]+0.001*[#  33]+0.001*[#  34]
          
    |psi|^2 = 0.993

 k =  -0.7144345083  0.5103103631  0.1020620726
==== e(   1) =   -75.82070 eV ==== 
     psi = 0.989*[#   9]+0.001*[#  18]+0.001*[#  32]+0.001*[#  33]+0.001*[#  34]
          
    |psi|^2 = 1.000
==== e(   2) =   -71.36840 eV ==== 
     psi = 0.989*[#  22]+0.001*[#  19]+0.001*[#  20]+0.001*[#  21]
    |psi|^2 = 1.000
==== e(   3) =   -42.06178 eV ==== 
     psi = 0.332*[#  10]+0.332*[#  11]+0.332*[#  12]
    |psi|^2 = 1.000
==== e(   4) =   -41.78937 eV ==== 
     psi = 0.332*[#  10]+0.332*[#  11]+0.332*[#  12]
    |psi|^2 = 1.000
==== e(   5) =   -41.77103 eV ==== 
     psi = 0.333*[#  10]+0.333*[#  11]+0.333*[#  12]
    |psi|^2 = 1.000
==== e(   6) =   -37.57609 eV ==== 
     psi = 0.332*[#  23]+0.332*[#  24]+0.332*[#  25]
    |psi|^2 = 1.000
==== e(   7) =   -37.53617 eV ==== 
     psi = 0.331*[#  23]+0.331*[#  24]+0.331*[#  25]+0.001*[#  32]+0.001*[#  33]
          +0.001*[#  34]
    |psi|^2 = 1.000
==== e(   8) =   -37.51243 eV ==== 
     psi = 0.333*[#  23]+0.333*[#  24]+0.333*[#  25]
    |psi|^2 = 1.000
==== e(   9) =    -5.04406 eV ==== 
     psi = 0.382*[#   1]+0.382*[#   5]+0.036*[#  32]+0.036*[#  33]+0.036*[#  34]
          +0.030*[#  19]+0.030*[#  20]+0.030*[#  21]+0.010*[#  18]+0.008*[#  31]
          +0.006*[#  13]+0.006*[#  16]+0.002*[#  26]+0.002*[#  29]
    |psi|^2 = 0.999
==== e(  10) =    -4.86880 eV ==== 
     psi = 0.423*[#   1]+0.423*[#   5]+0.023*[#  19]+0.023*[#  20]+0.023*[#  21]
          +0.015*[#  32]+0.015*[#  33]+0.015*[#  34]+0.011*[#  13]+0.011*[#  16]
          +0.007*[#  26]+0.007*[#  29]+0.002*[#  31]
    |psi|^2 = 0.999
==== e(  11) =     6.37708 eV ==== 
     psi = 0.081*[#  13]+0.081*[#  16]+0.081*[#   2]+0.081*[#   3]+0.081*[#   4]
          +0.081*[#   6]+0.081*[#   7]+0.081*[#   8]+0.055*[#  31]+0.052*[#  18]
          +0.048*[#  14]+0.048*[#  15]+0.048*[#  17]+0.016*[#  32]+0.016*[#  33]
          +0.016*[#  34]+0.006*[#   1]+0.006*[#   5]+0.005*[#  19]+0.005*[#  20]
          +0.005*[#  21]+0.005*[#  27]+0.005*[#  28]+0.005*[#  30]+0.003*[#  26]
          +0.003*[#  29]+0.002*[#  22]+0.002*[#   9]
    |psi|^2 = 0.996
==== e(  12) =     7.02503 eV ==== 
     psi = 0.094*[#  14]+0.094*[#  15]+0.094*[#  17]+0.069*[#   2]+0.069*[#   3]
          +0.069*[#   4]+0.069*[#   6]+0.069*[#   7]+0.069*[#   8]+0.063*[#  13]
          +0.063*[#  16]+0.023*[#  18]+0.022*[#  32]+0.022*[#  33]+0.022*[#  34]
          +0.020*[#  19]+0.020*[#  20]+0.020*[#  21]+0.015*[#  31]
    |psi|^2 = 0.997
==== e(  13) =     7.18847 eV ==== 
     psi = 0.130*[#  13]+0.130*[#  16]+0.082*[#  14]+0.082*[#  15]+0.082*[#  17]
          +0.061*[#   2]+0.061*[#   3]+0.061*[#   4]+0.061*[#   6]+0.061*[#   7]
          +0.061*[#   8]+0.021*[#  32]+0.021*[#  33]+0.021*[#  34]+0.016*[#  19]
          +0.016*[#  20]+0.016*[#  21]+0.002*[#  31]+0.002*[#  18]+0.001*[#  26]
          +0.001*[#  27]+0.001*[#  28]+0.001*[#  29]+0.001*[#  30]
    |psi|^2 = 0.996
==== e(  14) =     7.69143 eV ==== 
     psi = 0.146*[#  13]+0.146*[#  16]+0.076*[#   2]+0.076*[#   3]+0.076*[#   4]
          +0.076*[#   6]+0.076*[#   7]+0.076*[#   8]+0.031*[#  19]+0.031*[#  20]
          +0.031*[#  21]+0.026*[#  14]+0.026*[#  15]+0.026*[#  17]+0.012*[#  26]
          +0.012*[#  29]+0.008*[#  32]+0.008*[#  33]+0.008*[#  34]+0.005*[#  27]
          +0.005*[#  28]+0.005*[#  30]+0.005*[#  18]+0.004*[#   1]+0.004*[#   5]
          
    |psi|^2 = 0.997
==== e(  15) =     7.95616 eV ==== 
     psi = 0.136*[#  13]+0.136*[#  16]+0.069*[#   2]+0.069*[#   3]+0.069*[#   4]
          +0.069*[#   6]+0.069*[#   7]+0.069*[#   8]+0.059*[#  14]+0.059*[#  15]
          +0.059*[#  17]+0.025*[#  18]+0.013*[#  26]+0.013*[#  29]+0.010*[#  32]
          +0.010*[#  33]+0.010*[#  34]+0.009*[#  19]+0.009*[#  20]+0.009*[#  21]
          +0.006*[#   1]+0.006*[#   5]+0.004*[#  27]+0.004*[#  28]+0.004*[#  30]
          +0.001*[#  31]
    |psi|^2 = 0.996
==== e(  16) =     8.24320 eV ==== 
     psi = 0.095*[#   2]+0.095*[#   3]+0.095*[#   4]+0.095*[#   6]+0.095*[#   7]
          +0.095*[#   8]+0.064*[#  14]+0.064*[#  15]+0.064*[#  17]+0.026*[#  19]
          +0.026*[#  20]+0.026*[#  21]+0.019*[#  32]+0.019*[#  33]+0.019*[#  34]
          +0.016*[#  27]+0.016*[#  28]+0.016*[#  30]+0.014*[#  18]+0.013*[#  31]
          +0.007*[#  26]+0.007*[#  29]+0.003*[#  13]+0.003*[#  16]
    |psi|^2 = 0.996
==== e(  17) =     9.26731 eV ==== 
     psi = 0.186*[#  14]+0.186*[#  15]+0.186*[#  17]+0.057*[#   2]+0.057*[#   3]
          +0.057*[#   4]+0.057*[#   6]+0.057*[#   7]+0.057*[#   8]+0.010*[#  32]
          +0.010*[#  33]+0.010*[#  34]+0.010*[#  19]+0.010*[#  20]+0.010*[#  21]
          +0.007*[#  18]+0.006*[#  26]+0.006*[#  29]+0.003*[#  27]+0.003*[#  28]
          +0.003*[#  30]+0.002*[#  13]+0.002*[#  16]
    |psi|^2 = 0.997
==== e(  18) =     9.63636 eV ==== 
     psi = 0.251*[#  14]+0.251*[#  15]+0.251*[#  17]+0.027*[#   2]+0.027*[#   3]
          +0.027*[#   4]+0.027*[#   6]+0.027*[#   7]+0.027*[#   8]+0.019*[#  13]
          +0.019*[#  16]+0.017*[#  18]+0.006*[#  26]+0.006*[#  29]+0.003*[#  19]
          +0.003*[#  20]+0.003*[#  21]
    |psi|^2 = 0.997
==== e(  19) =    10.28846 eV ==== 
     psi = 0.159*[#  14]+0.159*[#  15]+0.159*[#  17]+0.072*[#   2]+0.072*[#   3]
          +0.072*[#   4]+0.072*[#   6]+0.072*[#   7]+0.072*[#   8]+0.008*[#  19]
          +0.008*[#  20]+0.008*[#  21]+0.007*[#  13]+0.007*[#  16]+0.007*[#  32]
          +0.007*[#  33]+0.007*[#  34]+0.005*[#  18]+0.003*[#  26]+0.003*[#  29]
          +0.003*[#  27]+0.003*[#  28]+0.003*[#  30]+0.003*[#  31]
    |psi|^2 = 0.996
==== e(  20) =    11.13597 eV ==== 
     psi = 0.202*[#  13]+0.202*[#  16]+0.071*[#   2]+0.071*[#   3]+0.071*[#   4]
          +0.071*[#   6]+0.071*[#   7]+0.071*[#   8]+0.055*[#  31]+0.014*[#  14]
          +0.014*[#  15]+0.014*[#  17]+0.010*[#   1]+0.010*[#   5]+0.008*[#  32]
          +0.008*[#  33]+0.008*[#  34]+0.005*[#  26]+0.005*[#  29]+0.003*[#  18]
          +0.003*[#  27]+0.003*[#  28]+0.003*[#  30]+0.002*[#  19]+0.002*[#  20]
          +0.002*[#  21]
    |psi|^2 = 0.998
==== e(  21) =    11.62353 eV ==== 
     psi = 0.186*[#  13]+0.186*[#  16]+0.083*[#   2]+0.083*[#   3]+0.083*[#   4]
          +0.083*[#   6]+0.083*[#   7]+0.083*[#   8]+0.036*[#  26]+0.036*[#  29]
          +0.010*[#   1]+0.010*[#   5]+0.005*[#  32]+0.005*[#  33]+0.005*[#  34]
          +0.003*[#  14]+0.003*[#  15]+0.003*[#  17]+0.003*[#  31]
    |psi|^2 = 0.997
==== e(  22) =    14.15155 eV ==== 
     psi = 0.273*[#  27]+0.273*[#  28]+0.273*[#  30]+0.020*[#   2]+0.020*[#   3]
          +0.020*[#   4]+0.020*[#   6]+0.020*[#   7]+0.020*[#   8]+0.010*[#  26]
          +0.010*[#  29]+0.002*[#  19]+0.002*[#  20]+0.002*[#  21]
    |psi|^2 = 0.973
==== e(  23) =    14.70099 eV ==== 
     psi = 0.303*[#  27]+0.303*[#  28]+0.303*[#  30]+0.010*[#  26]+0.010*[#  29]
          +0.009*[#   2]+0.009*[#   3]+0.009*[#   4]+0.009*[#   6]+0.009*[#   7]
          +0.009*[#   8]+0.003*[#  18]
    |psi|^2 = 0.988
==== e(  24) =    16.56878 eV ==== 
     psi = 0.310*[#  27]+0.310*[#  28]+0.310*[#  30]+0.006*[#   2]+0.006*[#   3]
          +0.006*[#   4]+0.006*[#   6]+0.006*[#   7]+0.006*[#   8]+0.003*[#  19]
          +0.003*[#  20]+0.003*[#  21]
    |psi|^2 = 0.981
==== e(  25) =    17.03020 eV ==== 
     psi = 0.406*[#  26]+0.406*[#  29]+0.061*[#  18]+0.013*[#   1]+0.013*[#   5]
          +0.010*[#  27]+0.010*[#  28]+0.010*[#  30]+0.006*[#   2]+0.006*[#   3]
          +0.006*[#   4]+0.006*[#   6]+0.006*[#   7]+0.006*[#   8]+0.005*[#  19]
          +0.005*[#  20]+0.005*[#  21]+0.004*[#  32]+0.004*[#  33]+0.004*[#  34]
          +0.001*[#  13]+0.001*[#  16]
    |psi|^2 = 0.991
==== e(  26) =    17.52493 eV ==== 
     psi = 0.415*[#  26]+0.415*[#  29]+0.016*[#   2]+0.016*[#   3]+0.016*[#   4]
          +0.016*[#   6]+0.016*[#   7]+0.016*[#   8]+0.010*[#   1]+0.010*[#   5]
          +0.007*[#  27]+0.007*[#  28]+0.007*[#  30]+0.005*[#  19]+0.005*[#  20]
          +0.005*[#  21]+0.002*[#  13]+0.002*[#  16]+0.001*[#  32]+0.001*[#  33]
          +0.001*[#  34]
    |psi|^2 = 0.994

 k =  -0.4082482905  0.4082482905 -0.0000000000
==== e(   1) =   -75.82191 eV ==== 
     psi = 0.981*[#   9]+0.004*[#  19]+0.004*[#  20]+0.004*[#  21]+0.001*[#  32]
          +0.001*[#  33]+0.001*[#  34]
    |psi|^2 = 1.000
==== e(   2) =   -71.36990 eV ==== 
     psi = 0.981*[#  22]+0.004*[#  32]+0.004*[#  33]+0.004*[#  34]+0.001*[#  19]
          +0.001*[#  20]+0.001*[#  21]
    |psi|^2 = 1.000
==== e(   3) =   -42.06379 eV ==== 
     psi = 0.332*[#  10]+0.332*[#  11]+0.332*[#  12]
    |psi|^2 = 1.000
==== e(   4) =   -41.77848 eV ==== 
     psi = 0.332*[#  10]+0.332*[#  11]+0.332*[#  12]
    |psi|^2 = 1.000
==== e(   5) =   -41.76459 eV ==== 
     psi = 0.333*[#  10]+0.333*[#  11]+0.333*[#  12]
    |psi|^2 = 1.000
==== e(   6) =   -37.57879 eV ==== 
     psi = 0.332*[#  23]+0.332*[#  24]+0.332*[#  25]
    |psi|^2 = 1.000
==== e(   7) =   -37.52224 eV ==== 
     psi = 0.332*[#  23]+0.332*[#  24]+0.332*[#  25]
    |psi|^2 = 1.000
==== e(   8) =   -37.50425 eV ==== 
     psi = 0.333*[#  23]+0.333*[#  24]+0.333*[#  25]
    |psi|^2 = 1.000
==== e(   9) =    -5.48574 eV ==== 
     psi = 0.345*[#   1]+0.345*[#   5]+0.046*[#  18]+0.043*[#  31]+0.035*[#  19]
          +0.035*[#  20]+0.035*[#  21]+0.035*[#  32]+0.035*[#  33]+0.035*[#  34]
          +0.003*[#  22]+0.003*[#   9]
    |psi|^2 = 1.000
==== e(  10) =    -4.87767 eV ==== 
     psi = 0.412*[#   1]+0.412*[#   5]+0.025*[#  19]+0.025*[#  20]+0.025*[#  21]
          +0.024*[#  32]+0.024*[#  33]+0.024*[#  34]+0.009*[#  13]+0.009*[#  16]
          +0.005*[#  26]+0.005*[#  29]
    |psi|^2 = 0.999
==== e(  11) =     6.58819 eV ==== 
     psi = 0.091*[#  14]+0.091*[#  15]+0.091*[#  17]+0.072*[#   2]+0.072*[#   3]
          +0.072*[#   4]+0.072*[#   6]+0.072*[#   7]+0.072*[#   8]+0.068*[#  31]
          +0.053*[#  13]+0.053*[#  16]+0.018*[#  32]+0.018*[#  33]+0.018*[#  34]
          +0.013*[#  18]+0.013*[#  19]+0.013*[#  20]+0.013*[#  21]+0.003*[#  27]
          +0.003*[#  28]+0.003*[#  30]+0.002*[#  22]+0.001*[#   1]+0.001*[#   5]
          
    |psi|^2 = 0.996
==== e(  12) =     7.12201 eV ==== 
     psi = 0.178*[#  13]+0.178*[#  16]+0.060*[#   2]+0.060*[#   3]+0.060*[#   4]
          +0.060*[#   6]+0.060*[#   7]+0.060*[#   8]+0.059*[#  14]+0.059*[#  15]
          +0.059*[#  17]+0.018*[#  19]+0.018*[#  20]+0.018*[#  21]+0.015*[#  32]
          +0.015*[#  33]+0.015*[#  34]+0.001*[#  27]+0.001*[#  28]+0.001*[#  30]
          
    |psi|^2 = 0.996
==== e(  13) =     7.12769 eV ==== 
     psi = 0.153*[#  13]+0.153*[#  16]+0.074*[#   2]+0.074*[#   3]+0.074*[#   4]
          +0.074*[#   6]+0.074*[#   7]+0.074*[#   8]+0.054*[#  18]+0.028*[#  14]
          +0.028*[#  15]+0.028*[#  17]+0.016*[#  19]+0.016*[#  20]+0.016*[#  21]
          +0.009*[#  31]+0.008*[#   1]+0.008*[#   5]+0.005*[#  32]+0.005*[#  33]
          +0.005*[#  34]+0.005*[#  27]+0.005*[#  28]+0.005*[#  30]+0.002*[#   9]
          
    |psi|^2 = 0.996
==== e(  14) =     7.83633 eV ==== 
     psi = 0.087*[#  13]+0.087*[#  16]+0.076*[#   2]+0.076*[#   3]+0.076*[#   4]
          +0.076*[#   6]+0.076*[#   7]+0.076*[#   8]+0.075*[#  14]+0.075*[#  15]
          +0.075*[#  17]+0.066*[#  18]+0.017*[#  26]+0.017*[#  29]+0.011*[#   1]
          +0.011*[#   5]+0.004*[#  31]+0.003*[#  32]+0.003*[#  33]+0.003*[#  34]
          +0.002*[#  27]+0.002*[#  28]+0.002*[#  30]
    |psi|^2 = 0.996
==== e(  15) =     8.00180 eV ==== 
     psi = 0.138*[#  14]+0.138*[#  15]+0.138*[#  17]+0.124*[#  13]+0.124*[#  16]
          +0.044*[#   2]+0.044*[#   3]+0.044*[#   4]+0.044*[#   6]+0.044*[#   7]
          +0.044*[#   8]+0.009*[#  26]+0.009*[#  29]+0.007*[#  32]+0.007*[#  33]
          +0.007*[#  34]+0.006*[#  19]+0.006*[#  20]+0.006*[#  21]+0.004*[#   1]
          +0.004*[#   5]+0.001*[#  27]+0.001*[#  28]+0.001*[#  30]
    |psi|^2 = 0.994
==== e(  16) =     8.95793 eV ==== 
     psi = 0.108*[#   2]+0.108*[#   3]+0.108*[#   4]+0.108*[#   6]+0.108*[#   7]
          +0.108*[#   8]+0.031*[#  14]+0.031*[#  15]+0.031*[#  17]+0.021*[#  19]
          +0.021*[#  20]+0.021*[#  21]+0.020*[#  32]+0.020*[#  33]+0.020*[#  34]
          +0.019*[#  13]+0.019*[#  16]+0.017*[#  27]+0.017*[#  28]+0.017*[#  30]
          +0.016*[#  26]+0.016*[#  29]+0.003*[#   1]+0.003*[#   5]
    |psi|^2 = 0.995
==== e(  17) =     9.13858 eV ==== 
     psi = 0.244*[#  14]+0.244*[#  15]+0.244*[#  17]+0.033*[#   2]+0.033*[#   3]
          +0.033*[#   4]+0.033*[#   6]+0.033*[#   7]+0.033*[#   8]+0.016*[#  18]
          +0.010*[#  31]+0.005*[#  19]+0.005*[#  20]+0.005*[#  21]+0.004*[#  32]
          +0.004*[#  33]+0.004*[#  34]+0.003*[#  27]+0.003*[#  28]+0.003*[#  30]
          
    |psi|^2 = 0.994
==== e(  18) =     9.74635 eV ==== 
     psi = 0.221*[#  14]+0.221*[#  15]+0.221*[#  17]+0.042*[#   2]+0.042*[#   3]
          +0.042*[#   4]+0.042*[#   6]+0.042*[#   7]+0.042*[#   8]+0.017*[#  31]
          +0.013*[#  18]+0.007*[#  26]+0.007*[#  29]+0.007*[#   1]+0.007*[#   5]
          +0.006*[#  32]+0.006*[#  33]+0.006*[#  34]
    |psi|^2 = 0.998
==== e(  19) =    10.59366 eV ==== 
     psi = 0.105*[#   2]+0.105*[#   3]+0.105*[#   4]+0.105*[#   6]+0.105*[#   7]
          +0.105*[#   8]+0.094*[#  14]+0.094*[#  15]+0.094*[#  17]+0.008*[#  19]
          +0.008*[#  20]+0.008*[#  21]+0.008*[#  27]+0.008*[#  28]+0.008*[#  30]
          +0.006*[#  26]+0.006*[#  29]+0.005*[#  32]+0.005*[#  33]+0.005*[#  34]
          +0.004*[#  13]+0.004*[#  16]
    |psi|^2 = 0.996
==== e(  20) =    11.09746 eV ==== 
     psi = 0.199*[#  13]+0.199*[#  16]+0.077*[#   2]+0.077*[#   3]+0.077*[#   4]
          +0.077*[#   6]+0.077*[#   7]+0.077*[#   8]+0.053*[#  31]+0.020*[#  26]
          +0.020*[#  29]+0.009*[#   1]+0.009*[#   5]+0.005*[#  19]+0.005*[#  20]
          +0.005*[#  21]+0.002*[#  27]+0.002*[#  28]+0.002*[#  30]+0.001*[#  32]
          +0.001*[#  33]+0.001*[#  34]
    |psi|^2 = 0.996
==== e(  21) =    11.80200 eV ==== 
     psi = 0.160*[#  13]+0.160*[#  16]+0.094*[#   2]+0.094*[#   3]+0.094*[#   4]
          +0.094*[#   6]+0.094*[#   7]+0.094*[#   8]+0.024*[#  26]+0.024*[#  29]
          +0.010*[#   1]+0.010*[#   5]+0.005*[#  32]+0.005*[#  33]+0.005*[#  34]
          +0.004*[#  27]+0.004*[#  28]+0.004*[#  30]+0.003*[#  14]+0.003*[#  15]
          +0.003*[#  17]+0.002*[#  19]+0.002*[#  20]+0.002*[#  21]
    |psi|^2 = 0.996
==== e(  22) =    14.13579 eV ==== 
     psi = 0.268*[#  27]+0.268*[#  28]+0.268*[#  30]+0.023*[#   2]+0.023*[#   3]
          +0.023*[#   4]+0.023*[#   6]+0.023*[#   7]+0.023*[#   8]+0.011*[#  26]
          +0.011*[#  29]+0.003*[#  13]+0.003*[#  16]+0.002*[#  19]+0.002*[#  20]
          +0.002*[#  21]
    |psi|^2 = 0.976
==== e(  23) =    14.41120 eV ==== 
     psi = 0.307*[#  27]+0.307*[#  28]+0.307*[#  30]+0.014*[#  26]+0.014*[#  29]
          +0.003*[#   2]+0.003*[#   3]+0.003*[#   4]+0.003*[#   6]+0.003*[#   7]
          +0.003*[#   8]+0.003*[#  18]+0.002*[#   1]+0.002*[#   5]+0.001*[#  19]
          +0.001*[#  20]+0.001*[#  21]+0.001*[#  31]
    |psi|^2 = 0.982
==== e(  24) =    16.36317 eV ==== 
     psi = 0.278*[#  27]+0.278*[#  28]+0.278*[#  30]+0.024*[#  26]+0.024*[#  29]
          +0.015*[#  18]+0.009*[#  32]+0.009*[#  33]+0.009*[#  34]+0.007*[#   1]
          +0.007*[#   5]+0.006*[#   2]+0.006*[#   3]+0.006*[#   4]+0.006*[#   6]
          +0.006*[#   7]+0.006*[#   8]+0.001*[#  31]
    |psi|^2 = 0.976
==== e(  25) =    16.89231 eV ==== 
     psi = 0.284*[#  26]+0.284*[#  29]+0.096*[#  18]+0.038*[#  27]+0.038*[#  28]
          +0.038*[#  30]+0.029*[#   1]+0.029*[#   5]+0.015*[#   2]+0.015*[#   3]
          +0.015*[#   4]+0.015*[#   6]+0.015*[#   7]+0.015*[#   8]+0.010*[#  31]
          +0.010*[#  32]+0.010*[#  33]+0.010*[#  34]+0.006*[#  19]+0.006*[#  20]
          +0.006*[#  21]+0.004*[#  13]+0.004*[#  16]
    |psi|^2 = 0.990
==== e(  26) =    17.37415 eV ==== 
     psi = 0.413*[#  26]+0.413*[#  29]+0.016*[#   2]+0.016*[#   3]+0.016*[#   4]
          +0.016*[#   6]+0.016*[#   7]+0.016*[#   8]+0.010*[#  27]+0.010*[#  28]
          +0.010*[#  30]+0.009*[#   1]+0.009*[#   5]+0.005*[#  19]+0.005*[#  20]
          +0.005*[#  21]
    |psi|^2 = 0.992

 k =   0.4082482905  0.4082482905 -0.4082482905
==== e(   1) =   -75.82153 eV ==== 
     psi = 0.985*[#   9]+0.002*[#  19]+0.002*[#  20]+0.002*[#  21]+0.001*[#  32]
          +0.001*[#  33]+0.001*[#  34]
    |psi|^2 = 1.000
==== e(   2) =   -71.36941 eV ==== 
     psi = 0.985*[#  22]+0.002*[#  32]+0.002*[#  33]+0.002*[#  34]+0.001*[#  19]
          +0.001*[#  20]+0.001*[#  21]
    |psi|^2 = 1.000
==== e(   3) =   -42.06313 eV ==== 
     psi = 0.332*[#  10]+0.332*[#  11]+0.332*[#  12]
    |psi|^2 = 1.000
==== e(   4) =   -41.78487 eV ==== 
     psi = 0.332*[#  10]+0.332*[#  11]+0.332*[#  12]
    |psi|^2 = 1.000
==== e(   5) =   -41.76397 eV ==== 
     psi = 0.332*[#  10]+0.332*[#  11]+0.332*[#  12]
    |psi|^2 = 1.000
==== e(   6) =   -37.57786 eV ==== 
     psi = 0.332*[#  23]+0.332*[#  24]+0.332*[#  25]
    |psi|^2 = 1.000
==== e(   7) =   -37.53035 eV ==== 
     psi = 0.331*[#  23]+0.331*[#  24]+0.331*[#  25]
    |psi|^2 = 1.000
==== e(   8) =   -37.50346 eV ==== 
     psi = 0.333*[#  23]+0.333*[#  24]+0.333*[#  25]
    |psi|^2 = 1.000
==== e(   9) =    -5.25573 eV ==== 
     psi = 0.352*[#   1]+0.352*[#   5]+0.040*[#  19]+0.040*[#  20]+0.040*[#  21]
          +0.040*[#  32]+0.040*[#  33]+0.040*[#  34]+0.025*[#  18]+0.022*[#  31]
          +0.002*[#   9]+0.002*[#  22]
    |psi|^2 = 1.000
==== e(  10) =    -4.96638 eV ==== 
     psi = 0.425*[#   1]+0.425*[#   5]+0.014*[#  19]+0.014*[#  20]+0.014*[#  21]
          +0.014*[#  32]+0.014*[#  33]+0.014*[#  34]+0.013*[#  13]+0.013*[#  16]
          +0.013*[#  31]+0.012*[#  18]+0.007*[#  26]+0.007*[#  29]
    |psi|^2 = 0.999
==== e(  11) =     6.42526 eV ==== 
     psi = 0.087*[#  14]+0.087*[#  15]+0.087*[#  17]+0.087*[#  31]+0.083*[#   2]
          +0.083*[#   3]+0.083*[#   4]+0.083*[#   6]+0.083*[#   7]+0.083*[#   8]
          +0.080*[#  18]+0.011*[#   1]+0.011*[#   5]+0.007*[#  27]+0.007*[#  28]
          +0.007*[#  30]+0.004*[#  13]+0.004*[#  16]+0.002*[#  19]+0.002*[#  20]
          +0.002*[#  21]+0.003*[#  32]+0.003*[#  33]+0.003*[#  34]+0.002*[#  22]
          
    |psi|^2 = 0.995
==== e(  12) =     6.93583 eV ==== 
     psi = 0.089*[#   2]+0.089*[#   3]+0.089*[#   4]+0.089*[#   6]+0.089*[#   7]
          +0.089*[#   8]+0.073*[#  13]+0.073*[#  16]+0.038*[#  19]+0.038*[#  20]
          +0.038*[#  21]+0.036*[#  18]+0.035*[#  32]+0.035*[#  33]+0.035*[#  34]
          +0.014*[#  14]+0.014*[#  15]+0.014*[#  17]+0.004*[#  27]+0.004*[#  28]
          +0.004*[#  30]+0.002*[#   1]+0.002*[#   5]+0.001*[#   9]
    |psi|^2 = 0.998
==== e(  13) =     7.22445 eV ==== 
     psi = 0.132*[#  14]+0.132*[#  15]+0.132*[#  17]+0.124*[#  13]+0.124*[#  16]
          +0.047*[#   2]+0.047*[#   3]+0.047*[#   4]+0.047*[#   6]+0.047*[#   7]
          +0.047*[#   8]+0.009*[#  31]+0.007*[#  32]+0.007*[#  33]+0.007*[#  34]
          +0.006*[#  19]+0.006*[#  20]+0.006*[#  21]+0.004*[#  18]+0.003*[#  26]
          +0.003*[#  29]+0.003*[#   1]+0.003*[#   5]+0.002*[#  27]+0.002*[#  28]
          +0.002*[#  30]
    |psi|^2 = 0.992
==== e(  14) =     7.39367 eV ==== 
     psi = 0.318*[#  13]+0.318*[#  16]+0.053*[#   2]+0.053*[#   3]+0.053*[#   4]
          +0.053*[#   6]+0.053*[#   7]+0.053*[#   8]+0.007*[#  14]+0.007*[#  15]
          +0.007*[#  17]+0.004*[#  26]+0.004*[#  29]+0.002*[#  27]+0.002*[#  28]
          +0.002*[#  30]+0.002*[#  32]+0.002*[#  33]+0.002*[#  34]
    |psi|^2 = 0.995
==== e(  15) =     8.56992 eV ==== 
     psi = 0.109*[#  13]+0.109*[#  16]+0.100*[#  14]+0.100*[#  15]+0.100*[#  17]
          +0.056*[#   2]+0.056*[#   3]+0.056*[#   4]+0.056*[#   6]+0.056*[#   7]
          +0.056*[#   8]+0.015*[#  26]+0.015*[#  29]+0.011*[#  19]+0.011*[#  20]
          +0.011*[#  21]+0.008*[#   1]+0.008*[#   5]+0.008*[#  32]+0.008*[#  33]
          +0.008*[#  34]+0.008*[#  27]+0.008*[#  28]+0.008*[#  30]+0.005*[#  31]
          +0.002*[#  18]
    |psi|^2 = 0.991
==== e(  16) =     8.75944 eV ==== 
     psi = 0.207*[#  14]+0.207*[#  15]+0.207*[#  17]+0.049*[#   2]+0.049*[#   3]
          +0.049*[#   4]+0.049*[#   6]+0.049*[#   7]+0.049*[#   8]+0.012*[#  26]
          +0.012*[#  29]+0.010*[#  13]+0.010*[#  16]+0.008*[#  19]+0.008*[#  20]
          +0.008*[#  21]+0.003*[#  32]+0.003*[#  33]+0.003*[#  34]
    |psi|^2 = 0.995
==== e(  17) =     9.26304 eV ==== 
     psi = 0.100*[#   2]+0.100*[#   3]+0.100*[#   4]+0.100*[#   6]+0.100*[#   7]
          +0.100*[#   8]+0.085*[#  14]+0.085*[#  15]+0.085*[#  17]+0.022*[#  31]
          +0.019*[#  18]+0.011*[#  19]+0.011*[#  20]+0.011*[#  21]+0.010*[#  13]
          +0.010*[#  16]+0.009*[#  26]+0.009*[#  29]+0.007*[#  32]+0.007*[#  33]
          +0.007*[#  34]+0.003*[#  27]+0.003*[#  28]+0.003*[#  30]
    |psi|^2 = 0.996
==== e(  18) =     9.70714 eV ==== 
     psi = 0.228*[#  14]+0.228*[#  15]+0.228*[#  17]+0.038*[#   2]+0.038*[#   3]
          +0.038*[#   4]+0.038*[#   6]+0.038*[#   7]+0.038*[#   8]+0.019*[#  18]
          +0.016*[#  31]+0.006*[#   1]+0.006*[#   5]+0.004*[#  32]+0.004*[#  33]
          +0.004*[#  34]+0.003*[#  26]+0.003*[#  27]+0.003*[#  28]+0.003*[#  29]
          +0.003*[#  30]+0.002*[#  13]+0.002*[#  16]+0.002*[#  19]+0.002*[#  20]
          +0.002*[#  21]
    |psi|^2 = 0.995
==== e(  19) =    10.00629 eV ==== 
     psi = 0.112*[#  14]+0.112*[#  15]+0.112*[#  17]+0.092*[#   2]+0.092*[#   3]
          +0.092*[#   4]+0.092*[#   6]+0.092*[#   7]+0.092*[#   8]+0.021*[#  26]
          +0.021*[#  29]+0.009*[#  19]+0.009*[#  20]+0.009*[#  21]+0.008*[#  32]
          +0.008*[#  33]+0.008*[#  34]+0.008*[#  13]+0.008*[#  16]
    |psi|^2 = 0.997
==== e(  20) =    11.71788 eV ==== 
     psi = 0.160*[#  13]+0.160*[#  16]+0.092*[#   2]+0.092*[#   3]+0.092*[#   4]
          +0.092*[#   6]+0.092*[#   7]+0.092*[#   8]+0.021*[#  26]+0.021*[#  29]
          +0.014*[#  27]+0.014*[#  28]+0.014*[#  30]+0.007*[#  32]+0.007*[#  33]
          +0.007*[#  34]+0.006*[#  14]+0.006*[#  15]+0.006*[#  17]
    |psi|^2 = 0.996
==== e(  21) =    11.84291 eV ==== 
     psi = 0.163*[#  13]+0.163*[#  16]+0.094*[#   2]+0.094*[#   3]+0.094*[#   4]
          +0.094*[#   6]+0.094*[#   7]+0.094*[#   8]+0.019*[#  26]+0.019*[#  29]
          +0.011*[#   1]+0.011*[#   5]+0.006*[#  14]+0.006*[#  15]+0.006*[#  17]
          +0.006*[#  32]+0.006*[#  33]+0.006*[#  34]+0.002*[#  27]+0.002*[#  28]
          +0.002*[#  30]
    |psi|^2 = 0.997
==== e(  22) =    13.82542 eV ==== 
     psi = 0.280*[#  27]+0.280*[#  28]+0.280*[#  30]+0.014*[#  26]+0.014*[#  29]
          +0.008*[#   2]+0.008*[#   3]+0.008*[#   4]+0.008*[#   6]+0.008*[#   7]
          +0.008*[#   8]+0.007*[#  19]+0.007*[#  20]+0.007*[#  21]+0.005*[#   1]
          +0.005*[#   5]+0.004*[#  14]+0.004*[#  15]+0.004*[#  17]+0.002*[#  31]
          
    |psi|^2 = 0.961
==== e(  23) =    14.71453 eV ==== 
     psi = 0.303*[#  27]+0.303*[#  28]+0.303*[#  30]+0.011*[#   2]+0.011*[#   3]
          +0.011*[#   4]+0.011*[#   6]+0.011*[#   7]+0.011*[#   8]+0.005*[#  26]
          +0.005*[#  29]+0.002*[#  13]+0.002*[#  16]
    |psi|^2 = 0.989
==== e(  24) =    16.44248 eV ==== 
     psi = 0.301*[#  27]+0.301*[#  28]+0.301*[#  30]+0.007*[#  32]+0.007*[#  33]
          +0.007*[#  34]+0.005*[#   2]+0.005*[#   3]+0.005*[#   4]+0.005*[#   6]
          +0.005*[#   7]+0.005*[#   8]+0.004*[#   1]+0.004*[#   5]+0.001*[#  14]
          +0.001*[#  15]+0.001*[#  17]+0.001*[#  18]+0.001*[#  19]+0.001*[#  20]
          +0.001*[#  21]
    |psi|^2 = 0.973
==== e(  25) =    17.34144 eV ==== 
[...]
    |psi|^2 = 0.997
==== e(  20) =    11.22632 eV ==== 
     psi = 0.149*[#  26]+0.149*[#  29]+0.088*[#   2]+0.088*[#   3]+0.088*[#   4]
          +0.088*[#   6]+0.088*[#   7]+0.088*[#   8]+0.019*[#  13]+0.019*[#  16]
          +0.016*[#  18]+0.016*[#   1]+0.016*[#   5]+0.012*[#  27]+0.012*[#  28]
          +0.012*[#  30]+0.009*[#  31]+0.007*[#  32]+0.007*[#  33]+0.007*[#  34]
          +0.004*[#  19]+0.004*[#  20]+0.004*[#  21]
    |psi|^2 = 0.996
==== e(  21) =    11.86129 eV ==== 
     psi = 0.143*[#  26]+0.143*[#  29]+0.102*[#   2]+0.102*[#   3]+0.102*[#   4]
          +0.102*[#   6]+0.102*[#   7]+0.102*[#   8]+0.020*[#  13]+0.020*[#  16]
          +0.011*[#  14]+0.011*[#  15]+0.011*[#  17]+0.004*[#  19]+0.004*[#  20]
          +0.004*[#  21]+0.002*[#  27]+0.002*[#  28]+0.002*[#  30]+0.002*[#  32]
          +0.002*[#  33]+0.002*[#  34]
    |psi|^2 = 0.995
==== e(  22) =    13.98498 eV ==== 
     psi = 0.292*[#  14]+0.292*[#  15]+0.292*[#  17]+0.019*[#  13]+0.019*[#  16]
          +0.006*[#   2]+0.006*[#   3]+0.006*[#   4]+0.006*[#   6]+0.006*[#   7]
          +0.006*[#   8]+0.003*[#  27]+0.003*[#  28]+0.003*[#  30]+0.003*[#  32]
          +0.003*[#  33]+0.003*[#  34]+0.002*[#   1]+0.002*[#   5]
    |psi|^2 = 0.972
==== e(  23) =    14.28136 eV ==== 
     psi = 0.298*[#  14]+0.298*[#  15]+0.298*[#  17]+0.014*[#  13]+0.014*[#  16]
          +0.009*[#   2]+0.009*[#   3]+0.009*[#   4]+0.009*[#   6]+0.009*[#   7]
          +0.009*[#   8]+0.002*[#  26]+0.002*[#  29]+0.001*[#  27]+0.001*[#  28]
          +0.001*[#  30]
    |psi|^2 = 0.982
==== e(  24) =    16.13022 eV ==== 
     psi = 0.275*[#  14]+0.275*[#  15]+0.275*[#  17]+0.015*[#  13]+0.015*[#  16]
          +0.009*[#   2]+0.009*[#   3]+0.009*[#   4]+0.009*[#   6]+0.009*[#   7]
          +0.009*[#   8]+0.008*[#  32]+0.008*[#  33]+0.008*[#  34]+0.007*[#  31]
          +0.005*[#   1]+0.005*[#   5]+0.004*[#  19]+0.004*[#  20]+0.004*[#  21]
          +0.001*[#  27]+0.001*[#  28]+0.001*[#  30]
    |psi|^2 = 0.967
==== e(  25) =    16.46642 eV ==== 
     psi = 0.269*[#  13]+0.269*[#  16]+0.129*[#  31]+0.052*[#   1]+0.052*[#   5]
          +0.024*[#  14]+0.024*[#  15]+0.024*[#  17]+0.023*[#  19]+0.023*[#  20]
          +0.023*[#  21]+0.010*[#   2]+0.010*[#   3]+0.010*[#   4]+0.010*[#   6]
          +0.010*[#   7]+0.010*[#   8]+0.004*[#  32]+0.004*[#  33]+0.004*[#  34]
          +0.001*[#  22]
    |psi|^2 = 0.987
==== e(  26) =    17.27317 eV ==== 
     psi = 0.414*[#  13]+0.414*[#  16]+0.019*[#   2]+0.019*[#   3]+0.019*[#   4]
          +0.019*[#   6]+0.019*[#   7]+0.019*[#   8]+0.010*[#  14]+0.010*[#  15]
          +0.010*[#  17]+0.003*[#  32]+0.003*[#  33]+0.003*[#  34]+0.001*[#  26]
          +0.001*[#  29]
    |psi|^2 = 0.989

 k =  -0.5103103631 -0.9185586535  1.1226827988
==== e(   1) =   -75.82201 eV ==== 
     psi = 0.978*[#  22]+0.003*[#  32]+0.003*[#  33]+0.003*[#  34]+0.003*[#  19]
          +0.003*[#  20]+0.003*[#  21]
    |psi|^2 = 1.000
==== e(   2) =   -71.36989 eV ==== 
     psi = 0.978*[#   9]+0.003*[#  19]+0.003*[#  20]+0.003*[#  21]+0.003*[#  32]
          +0.003*[#  33]+0.003*[#  34]
    |psi|^2 = 1.000
==== e(   3) =   -42.06423 eV ==== 
     psi = 0.332*[#  23]+0.332*[#  24]+0.332*[#  25]
    |psi|^2 = 1.000
==== e(   4) =   -41.77841 eV ==== 
     psi = 0.332*[#  23]+0.332*[#  24]+0.332*[#  25]
    |psi|^2 = 1.000
==== e(   5) =   -41.76447 eV ==== 
     psi = 0.333*[#  23]+0.333*[#  24]+0.333*[#  25]
    |psi|^2 = 1.000
==== e(   6) =   -37.57871 eV ==== 
     psi = 0.332*[#  10]+0.332*[#  11]+0.332*[#  12]
    |psi|^2 = 1.000
==== e(   7) =   -37.52226 eV ==== 
     psi = 0.332*[#  10]+0.332*[#  11]+0.332*[#  12]
    |psi|^2 = 1.000
==== e(   8) =   -37.50434 eV ==== 
     psi = 0.333*[#  10]+0.333*[#  11]+0.333*[#  12]
    |psi|^2 = 1.000
==== e(   9) =    -5.20441 eV ==== 
     psi = 0.375*[#   1]+0.375*[#   5]+0.044*[#  18]+0.030*[#  19]+0.030*[#  20]
          +0.030*[#  21]+0.030*[#  32]+0.030*[#  33]+0.030*[#  34]+0.008*[#  26]
          +0.008*[#  29]+0.003*[#   9]
    |psi|^2 = 0.999
==== e(  10) =    -5.17232 eV ==== 
     psi = 0.376*[#   1]+0.376*[#   5]+0.047*[#  31]+0.031*[#  32]+0.031*[#  33]
          +0.031*[#  34]+0.030*[#  19]+0.030*[#  20]+0.030*[#  21]+0.004*[#  13]
          +0.004*[#  16]+0.003*[#  22]+0.001*[#  26]+0.001*[#  29]
    |psi|^2 = 0.999
==== e(  11) =     6.38221 eV ==== 
     psi = 0.141*[#  26]+0.141*[#  29]+0.075*[#   2]+0.075*[#   3]+0.075*[#   4]
          +0.075*[#   6]+0.075*[#   7]+0.075*[#   8]+0.060*[#  18]+0.031*[#  27]
          +0.031*[#  28]+0.031*[#  30]+0.019*[#  32]+0.019*[#  33]+0.019*[#  34]
          +0.010*[#  19]+0.010*[#  20]+0.010*[#  21]+0.005*[#   1]+0.005*[#   5]
          +0.004*[#   9]+0.002*[#  14]+0.002*[#  15]+0.002*[#  17]
    |psi|^2 = 0.996
==== e(  12) =     6.99473 eV ==== 
     psi = 0.088*[#   2]+0.088*[#   3]+0.088*[#   4]+0.088*[#   6]+0.088*[#   7]
          +0.088*[#   8]+0.077*[#  31]+0.071*[#  26]+0.071*[#  29]+0.027*[#  27]
          +0.027*[#  28]+0.027*[#  30]+0.021*[#  19]+0.021*[#  20]+0.021*[#  21]
          +0.015*[#   1]+0.015*[#   5]+0.014*[#  13]+0.014*[#  16]+0.012*[#  32]
          +0.012*[#  33]+0.012*[#  34]+0.004*[#  22]+0.002*[#  14]+0.002*[#  15]
          +0.002*[#  17]
    |psi|^2 = 0.996
==== e(  13) =     7.40919 eV ==== 
     psi = 0.172*[#  26]+0.172*[#  29]+0.101*[#  27]+0.101*[#  28]+0.101*[#  30]
          +0.049*[#   2]+0.049*[#   3]+0.049*[#   4]+0.049*[#   6]+0.049*[#   7]
          +0.049*[#   8]+0.019*[#  31]+0.005*[#  32]+0.005*[#  33]+0.005*[#  34]
          +0.004*[#   1]+0.004*[#   5]+0.003*[#  19]+0.003*[#  20]+0.003*[#  21]
          +0.001*[#  13]+0.001*[#  16]
    |psi|^2 = 0.995
==== e(  14) =     7.75011 eV ==== 
     psi = 0.145*[#  27]+0.145*[#  28]+0.145*[#  30]+0.080*[#  26]+0.080*[#  29]
          +0.049*[#   2]+0.049*[#   3]+0.049*[#   4]+0.049*[#   6]+0.049*[#   7]
          +0.049*[#   8]+0.023*[#  31]+0.011*[#  19]+0.011*[#  20]+0.011*[#  21]
          +0.009*[#  14]+0.009*[#  15]+0.009*[#  17]+0.006*[#  32]+0.006*[#  33]
          +0.006*[#  34]+0.001*[#   1]+0.001*[#   5]
    |psi|^2 = 0.994
==== e(  15) =     7.89368 eV ==== 
     psi = 0.147*[#  27]+0.147*[#  28]+0.147*[#  30]+0.094*[#  26]+0.094*[#  29]
          +0.048*[#   2]+0.048*[#   3]+0.048*[#   4]+0.048*[#   6]+0.048*[#   7]
          +0.048*[#   8]+0.012*[#  18]+0.007*[#  32]+0.007*[#  33]+0.007*[#  34]
          +0.007*[#  19]+0.007*[#  20]+0.007*[#  21]+0.004*[#  13]+0.004*[#  16]
          +0.003*[#  14]+0.003*[#  15]+0.003*[#  17]+0.002*[#   1]+0.002*[#   5]
          
    |psi|^2 = 0.992
==== e(  16) =     9.19213 eV ==== 
     psi = 0.275*[#  27]+0.275*[#  28]+0.275*[#  30]+0.020*[#   2]+0.020*[#   3]
          +0.020*[#   4]+0.020*[#   6]+0.020*[#   7]+0.020*[#   8]+0.011*[#  31]
          +0.004*[#  32]+0.004*[#  33]+0.004*[#  34]+0.003*[#  13]+0.003*[#  14]
          +0.003*[#  15]+0.003*[#  16]+0.003*[#  17]+0.002*[#   1]+0.002*[#   5]
          
    |psi|^2 = 0.993
==== e(  17) =     9.51745 eV ==== 
     psi = 0.134*[#   2]+0.134*[#   3]+0.134*[#   4]+0.134*[#   6]+0.134*[#   7]
          +0.134*[#   8]+0.026*[#  13]+0.026*[#  16]+0.021*[#  32]+0.021*[#  33]
          +0.021*[#  34]+0.010*[#  14]+0.010*[#  15]+0.010*[#  17]+0.008*[#  27]
          +0.008*[#  28]+0.008*[#  30]+0.006*[#  19]+0.006*[#  20]+0.006*[#  21]
          +0.003*[#  26]+0.003*[#  29]
    |psi|^2 = 0.996
==== e(  18) =     9.87147 eV ==== 
     psi = 0.129*[#  27]+0.129*[#  28]+0.129*[#  30]+0.062*[#   2]+0.062*[#   3]
          +0.062*[#   4]+0.062*[#   6]+0.062*[#   7]+0.062*[#   8]+0.056*[#  26]
          +0.056*[#  29]+0.054*[#  18]+0.012*[#   1]+0.012*[#   5]+0.006*[#  14]
          +0.006*[#  15]+0.006*[#  17]+0.004*[#  32]+0.004*[#  33]+0.004*[#  34]
          +0.003*[#  13]+0.003*[#  16]+0.002*[#  19]+0.002*[#  20]+0.002*[#  21]
          +0.001*[#   9]
    |psi|^2 = 0.993
==== e(  19) =    10.34185 eV ==== 
     psi = 0.102*[#  27]+0.102*[#  28]+0.102*[#  30]+0.094*[#   2]+0.094*[#   3]
          +0.094*[#   4]+0.094*[#   6]+0.094*[#   7]+0.094*[#   8]+0.017*[#  26]
          +0.017*[#  29]+0.012*[#  32]+0.012*[#  33]+0.012*[#  34]+0.011*[#  13]
          +0.011*[#  16]+0.005*[#  14]+0.005*[#  15]+0.005*[#  17]+0.005*[#  19]
          +0.005*[#  20]+0.005*[#  21]+0.003*[#  31]
    |psi|^2 = 0.998
==== e(  20) =    10.95669 eV ==== 
     psi = 0.189*[#  26]+0.189*[#  29]+0.074*[#   2]+0.074*[#   3]+0.074*[#   4]
          +0.074*[#   6]+0.074*[#   7]+0.074*[#   8]+0.020*[#   1]+0.020*[#   5]
          +0.018*[#  13]+0.018*[#  16]+0.018*[#  19]+0.018*[#  20]+0.018*[#  21]
          +0.009*[#  27]+0.009*[#  28]+0.009*[#  30]+0.005*[#  18]+0.002*[#  14]
          +0.002*[#  15]+0.002*[#  17]+0.001*[#  32]+0.001*[#  33]+0.001*[#  34]
          
    |psi|^2 = 0.997
==== e(  21) =    11.69400 eV ==== 
     psi = 0.154*[#  26]+0.154*[#  29]+0.098*[#   2]+0.098*[#   3]+0.098*[#   4]
          +0.098*[#   6]+0.098*[#   7]+0.098*[#   8]+0.011*[#  19]+0.011*[#  20]
          +0.011*[#  21]+0.010*[#  13]+0.010*[#  16]+0.007*[#  14]+0.007*[#  15]
          +0.007*[#  17]+0.006*[#  27]+0.006*[#  28]+0.006*[#  30]+0.003*[#  31]
          +0.002*[#   1]+0.002*[#   5]
    |psi|^2 = 0.996
==== e(  22) =    14.13993 eV ==== 
     psi = 0.281*[#  14]+0.281*[#  15]+0.281*[#  17]+0.016*[#   2]+0.016*[#   3]
          +0.016*[#   4]+0.016*[#   6]+0.016*[#   7]+0.016*[#   8]+0.007*[#  13]
          +0.007*[#  16]+0.004*[#  27]+0.004*[#  28]+0.004*[#  30]+0.002*[#  26]
          +0.002*[#  29]+0.001*[#  19]+0.001*[#  20]+0.001*[#  21]+0.001*[#  31]
          
    |psi|^2 = 0.971
==== e(  23) =    14.45042 eV ==== 
     psi = 0.308*[#  14]+0.308*[#  15]+0.308*[#  17]+0.011*[#  13]+0.011*[#  16]
          +0.004*[#   2]+0.004*[#   3]+0.004*[#   4]+0.004*[#   6]+0.004*[#   7]
          +0.004*[#   8]+0.002*[#  27]+0.002*[#  28]+0.002*[#  30]+0.001*[#  18]
          
    |psi|^2 = 0.981
==== e(  24) =    16.36110 eV ==== 
     psi = 0.293*[#  14]+0.293*[#  15]+0.293*[#  17]+0.011*[#   2]+0.011*[#   3]
          +0.011*[#   4]+0.011*[#   6]+0.011*[#   7]+0.011*[#   8]+0.003*[#  19]
          +0.003*[#  20]+0.003*[#  21]+0.002*[#  32]+0.002*[#  33]+0.002*[#  34]
          +0.002*[#  27]+0.002*[#  28]+0.002*[#  30]+0.001*[#  13]+0.001*[#  16]
          
    |psi|^2 = 0.971
==== e(  25) =    16.62528 eV ==== 
     psi = 0.346*[#  13]+0.346*[#  16]+0.091*[#  31]+0.045*[#   1]+0.045*[#   5]
          +0.017*[#  32]+0.017*[#  33]+0.017*[#  34]+0.010*[#  19]+0.010*[#  20]
          +0.010*[#  21]+0.005*[#  14]+0.005*[#  15]+0.005*[#  17]+0.003*[#   2]
          +0.003*[#   3]+0.003*[#   4]+0.003*[#   6]+0.003*[#   7]+0.003*[#   8]
          
    |psi|^2 = 0.990
==== e(  26) =    17.21890 eV ==== 
     psi = 0.410*[#  13]+0.410*[#  16]+0.012*[#   2]+0.012*[#   3]+0.012*[#   4]
          +0.012*[#   6]+0.012*[#   7]+0.012*[#   8]+0.011*[#  32]+0.011*[#  33]
          +0.011*[#  34]+0.011*[#  14]+0.011*[#  15]+0.011*[#  17]+0.009*[#   1]
          +0.009*[#   5]+0.004*[#  18]+0.002*[#  19]+0.002*[#  20]+0.002*[#  21]
          
    |psi|^2 = 0.990

 k =  -0.3061862178 -0.3061862178 -0.3061862178
==== e(   1) =   -75.82404 eV ==== 
     psi = 0.970*[#  22]+0.009*[#  19]+0.009*[#  20]+0.009*[#  21]
    |psi|^2 = 1.000
==== e(   2) =   -71.37232 eV ==== 
     psi = 0.969*[#   9]+0.009*[#  32]+0.009*[#  33]+0.009*[#  34]
    |psi|^2 = 1.000
==== e(   3) =   -42.06749 eV ==== 
     psi = 0.332*[#  23]+0.332*[#  24]+0.332*[#  25]+0.001*[#  18]
    |psi|^2 = 1.000
==== e(   4) =   -41.75690 eV ==== 
     psi = 0.332*[#  23]+0.332*[#  24]+0.332*[#  25]+0.001*[#  32]+0.001*[#  33]
          +0.001*[#  34]
    |psi|^2 = 1.000
==== e(   5) =   -41.75690 eV ==== 
     psi = 0.332*[#  23]+0.332*[#  24]+0.332*[#  25]+0.001*[#  32]+0.001*[#  33]
          +0.001*[#  34]
    |psi|^2 = 1.000
==== e(   6) =   -37.58343 eV ==== 
     psi = 0.332*[#  10]+0.332*[#  11]+0.332*[#  12]
    |psi|^2 = 1.000
==== e(   7) =   -37.49486 eV ==== 
     psi = 0.332*[#  10]+0.332*[#  11]+0.332*[#  12]
    |psi|^2 = 1.000
==== e(   8) =   -37.49486 eV ==== 
     psi = 0.332*[#  10]+0.332*[#  11]+0.332*[#  12]
    |psi|^2 = 1.000
==== e(   9) =    -5.57086 eV ==== 
     psi = 0.338*[#   1]+0.338*[#   5]+0.106*[#  31]+0.069*[#  19]+0.069*[#  20]
          +0.069*[#  21]+0.006*[#  22]
    |psi|^2 = 1.000
==== e(  10) =    -5.54583 eV ==== 
     psi = 0.340*[#   1]+0.340*[#   5]+0.100*[#  18]+0.070*[#  32]+0.070*[#  33]
          +0.070*[#  34]+0.006*[#   9]
    |psi|^2 = 1.000
==== e(  11) =     6.73237 eV ==== 
     psi = 0.175*[#  27]+0.175*[#  28]+0.175*[#  30]+0.105*[#  31]+0.056*[#   2]
          +0.056*[#   3]+0.056*[#   4]+0.056*[#   6]+0.056*[#   7]+0.056*[#   8]
          +0.012*[#   1]+0.012*[#   5]+0.001*[#  22]
    |psi|^2 = 0.994
==== e(  12) =     7.32306 eV ==== 
     psi = 0.311*[#  26]+0.311*[#  29]+0.045*[#   2]+0.045*[#   3]+0.045*[#   4]
          +0.045*[#   6]+0.045*[#   7]+0.045*[#   8]+0.033*[#  27]+0.033*[#  28]
          +0.033*[#  30]
    |psi|^2 = 0.994
==== e(  13) =     7.32306 eV ==== 
     psi = 0.311*[#  26]+0.311*[#  29]+0.045*[#   2]+0.045*[#   3]+0.045*[#   4]
          +0.045*[#   6]+0.045*[#   7]+0.045*[#   8]+0.033*[#  27]+0.033*[#  28]
          +0.033*[#  30]
    |psi|^2 = 0.994
==== e(  14) =     8.08657 eV ==== 
     psi = 0.181*[#  18]+0.120*[#   2]+0.120*[#   3]+0.120*[#   4]+0.120*[#   6]
          +0.120*[#   7]+0.120*[#   8]+0.025*[#   1]+0.025*[#   5]+0.014*[#  14]
          +0.014*[#  15]+0.014*[#  17]+0.003*[#   9]
    |psi|^2 = 0.995
==== e(  15) =     8.89106 eV ==== 
     psi = 0.290*[#  27]+0.290*[#  28]+0.290*[#  30]+0.060*[#  26]+0.060*[#  29]
          
    |psi|^2 = 0.993
==== e(  16) =     8.89106 eV ==== 
     psi = 0.290*[#  27]+0.290*[#  28]+0.290*[#  30]+0.060*[#  26]+0.060*[#  29]
          
    |psi|^2 = 0.993
==== e(  17) =     9.65284 eV ==== 
     psi = 0.152*[#  27]+0.152*[#  28]+0.152*[#  30]+0.094*[#  31]+0.065*[#   2]
          +0.065*[#   3]+0.065*[#   4]+0.065*[#   6]+0.065*[#   7]+0.065*[#   8]
          +0.022*[#   1]+0.022*[#   5]+0.003*[#  19]+0.003*[#  20]+0.003*[#  21]
          +0.003*[#  22]
    |psi|^2 = 0.995
==== e(  18) =     9.92263 eV ==== 
     psi = 0.142*[#   2]+0.142*[#   3]+0.142*[#   4]+0.142*[#   6]+0.142*[#   7]
          +0.142*[#   8]+0.052*[#  13]+0.052*[#  16]+0.007*[#  14]+0.007*[#  15]
          +0.007*[#  17]+0.004*[#  32]+0.004*[#  33]+0.004*[#  34]
    |psi|^2 = 0.992
==== e(  19) =     9.92263 eV ==== 
     psi = 0.142*[#   2]+0.142*[#   3]+0.142*[#   4]+0.142*[#   6]+0.142*[#   7]
          +0.142*[#   8]+0.052*[#  13]+0.052*[#  16]+0.007*[#  14]+0.007*[#  15]
          +0.007*[#  17]+0.004*[#  32]+0.004*[#  33]+0.004*[#  34]
    |psi|^2 = 0.992
==== e(  20) =    12.18053 eV ==== 
     psi = 0.126*[#  26]+0.126*[#  29]+0.118*[#   2]+0.118*[#   3]+0.118*[#   4]
          +0.118*[#   6]+0.118*[#   7]+0.118*[#   8]+0.008*[#  27]+0.008*[#  28]
          +0.008*[#  30]+0.005*[#  19]+0.005*[#  20]+0.005*[#  21]
    |psi|^2 = 0.997
==== e(  21) =    12.18053 eV ==== 
     psi = 0.126*[#  26]+0.126*[#  29]+0.118*[#   2]+0.118*[#   3]+0.118*[#   4]
          +0.118*[#   6]+0.118*[#   7]+0.118*[#   8]+0.008*[#  27]+0.008*[#  28]
          +0.008*[#  30]+0.005*[#  19]+0.005*[#  20]+0.005*[#  21]
    |psi|^2 = 0.997
==== e(  22) =    13.98596 eV ==== 
     psi = 0.304*[#  14]+0.304*[#  15]+0.304*[#  17]+0.027*[#  13]+0.027*[#  16]
          +0.002*[#  32]+0.002*[#  33]+0.002*[#  34]+0.001*[#   2]+0.001*[#   3]
          +0.001*[#   4]+0.001*[#   6]+0.001*[#   7]+0.001*[#   8]
    |psi|^2 = 0.979
==== e(  23) =    13.98596 eV ==== 
     psi = 0.304*[#  14]+0.304*[#  15]+0.304*[#  17]+0.027*[#  13]+0.027*[#  16]
          +0.002*[#  32]+0.002*[#  33]+0.002*[#  34]+0.001*[#   2]+0.001*[#   3]
          +0.001*[#   4]+0.001*[#   6]+0.001*[#   7]+0.001*[#   8]
    |psi|^2 = 0.979
==== e(  24) =    15.81904 eV ==== 
     psi = 0.261*[#  14]+0.261*[#  15]+0.261*[#  17]+0.034*[#  32]+0.034*[#  33]
          +0.034*[#  34]+0.024*[#   1]+0.024*[#   5]+0.011*[#  18]+0.003*[#   9]
          +0.002*[#   2]+0.002*[#   3]+0.002*[#   4]+0.002*[#   6]+0.002*[#   7]
          +0.002*[#   8]
    |psi|^2 = 0.958
==== e(  25) =    17.19214 eV ==== 
     psi = 0.410*[#  13]+0.410*[#  16]+0.019*[#   2]+0.019*[#   3]+0.019*[#   4]
          +0.019*[#   6]+0.019*[#   7]+0.019*[#   8]+0.013*[#  14]+0.013*[#  15]
          +0.013*[#  17]+0.004*[#  32]+0.004*[#  33]+0.004*[#  34]
    |psi|^2 = 0.987
==== e(  26) =    17.19214 eV ==== 
     psi = 0.410*[#  13]+0.410*[#  16]+0.019*[#   2]+0.019*[#   3]+0.019*[#   4]
          +0.019*[#   6]+0.019*[#   7]+0.019*[#   8]+0.013*[#  14]+0.013*[#  15]
          +0.013*[#  17]+0.004*[#  32]+0.004*[#  33]+0.004*[#  34]
    |psi|^2 = 0.987

Lowdin Charges: 

     Atom #   1: total charge =   6.4518, s =  1.6466, p =  4.8052, d =  0.0000, 
                 spin up      =   3.2259, s =  0.8233, 
                 spin up      =   3.2259, p =  2.4026, pz=  0.8009, px=  0.8009, py=  0.8009, 
                 spin up      =   3.2259, d =  0.0000, dz2=  0.0000, dxz=  0.0000, dyz=  0.0000, dx2-y2=  0.0000, dxy=  0.0000, 
                 spin down    =   3.2259, s =  0.8233, 
                 spin down    =   3.2259, p =  2.4026, pz=  0.8009, px=  0.8009, py=  0.8009, 
                 spin down    =   3.2259, d =  0.0000, dz2=  0.0000, dxz=  0.0000, dyz=  0.0000, dx2-y2=  0.0000, dxy=  0.0000, 
                 polarization =  -0.0000, s = -0.0000, p = -0.0000, d =  0.0000, 
     Atom #   2: total charge =   6.4518, s =  1.6466, p =  4.8052, d =  0.0000, 
                 spin up      =   3.2259, s =  0.8233, 
                 spin up      =   3.2259, p =  2.4026, pz=  0.8009, px=  0.8009, py=  0.8009, 
                 spin up      =   3.2259, d =  0.0000, dz2=  0.0000, dxz=  0.0000, dyz=  0.0000, dx2-y2=  0.0000, dxy=  0.0000, 
                 spin down    =   3.2259, s =  0.8233, 
                 spin down    =   3.2259, p =  2.4026, pz=  0.8009, px=  0.8009, py=  0.8009, 
                 spin down    =   3.2259, d =  0.0000, dz2=  0.0000, dxz=  0.0000, dyz=  0.0000, dx2-y2=  0.0000, dxy=  0.0000, 
                 polarization =  -0.0000, s = -0.0000, p = -0.0000, d =  0.0000, 
     Atom #   3: total charge =  15.4672, s =  2.3555, p =  6.9536, d =  6.1581, 
                 spin up      =   9.6048, s =  1.1836, 
                 spin up      =   9.6048, p =  3.4815, pz=  1.1605, px=  1.1605, py=  1.1605, 
                 spin up      =   9.6048, d =  4.9397, dz2=  0.9897, dxz=  0.9868, dyz=  0.9868, dx2-y2=  0.9897, dxy=  0.9868, 
                 spin down    =   5.8624, s =  1.1719, 
                 spin down    =   5.8624, p =  3.4721, pz=  1.1574, px=  1.1574, py=  1.1574, 
                 spin down    =   5.8624, d =  1.2184, dz2=  0.1195, dxz=  0.3265, dyz=  0.3265, dx2-y2=  0.1195, dxy=  0.3265, 
                 polarization =   3.7424, s =  0.0117, p =  0.0094, d =  3.7213, 
     Atom #   4: total charge =  15.4659, s =  2.3555, p =  6.9536, d =  6.1568, 
                 spin up      =   5.8611, s =  1.1719, 
                 spin up      =   5.8611, p =  3.4721, pz=  1.1574, px=  1.1574, py=  1.1574, 
                 spin up      =   5.8611, d =  1.2171, dz2=  0.1194, dxz=  0.3261, dyz=  0.3261, dx2-y2=  0.1194, dxy=  0.3261, 
                 spin down    =   9.6048, s =  1.1836, 
                 spin down    =   9.6048, p =  3.4815, pz=  1.1605, px=  1.1605, py=  1.1605, 
                 spin down    =   9.6048, d =  4.9397, dz2=  0.9897, dxz=  0.9868, dyz=  0.9868, dx2-y2=  0.9897, dxy=  0.9868, 
                 polarization =  -3.7437, s = -0.0117, p = -0.0094, d = -3.7225, 
     Spilling Parameter:   0.0037
 
     PROJWFC      :      1.14s CPU      1.72s WALL

 
   This run was terminated on:  16: 5:30   5Jun2026            

=------------------------------------------------------------------------------=
   JOB DONE.
=------------------------------------------------------------------------------=
