
     Program PWSCF v.7.1 starts on  5Jun2026 at 16: 4:49 

     This program is part of the open-source Quantum ESPRESSO suite
     for quantum simulation of materials; please cite
         "P. Giannozzi et al., J. Phys.:Condens. Matter 21 395502 (2009);
         "P. Giannozzi et al., J. Phys.:Condens. Matter 29 465901 (2017);
         "P. Giannozzi et al., J. Chem. Phys. 152 154105 (2020);
          URL http://www.quantum-espresso.org", 
     in publications or presentations arising from this work. More details at
     http://www.quantum-espresso.org/quote

     Parallel version (MPI & OpenMP), running on       7 processor cores
     Number of MPI processes:                 7
     Threads/MPI process:                     1

     MPI processes distributed on     7 nodes
     222391 MiB available memory on the printing compute node when the environment starts
 
     Waiting for input...
     Reading input from standard input

     Current dimensions of program PWSCF are:
     Max number of different atomic species (ntypx) = 10
     Max number of k-points (npk) =  40000
     Max angular momentum in pseudopotentials (lmaxx) =  4
     Message from routine volume:
     axis vectors are left-handed
     Message from routine setup:
     using ibrav=0 with symmetry is DISCOURAGED, use correct ibrav instead
 
     R & G space division:  proc/nbgrp/npool/nimage =       7
     Subspace diagonalization in iterative solution of the eigenvalue problem:
     a serial algorithm will be used

 
     Parallelization info
     --------------------
     sticks:   dense  smooth     PW     G-vecs:    dense   smooth      PW
     Min         316     126     41                 7408     1873     352
     Max         317     127     41                 7409     1875     353
     Sum        2213     887    287                51859    13117    2467
 
     Using Slab Decomposition
 


     bravais-lattice index     =            0
     lattice parameter (alat)  =      10.0307  a.u.
     unit-cell volume          =     274.6764 (a.u.)^3
     number of atoms/cell      =            4
     number of atomic types    =            3
     number of electrons       =        44.00
     number of Kohn-Sham states=           26
     kinetic-energy cutoff     =      50.0000  Ry
     charge density cutoff     =     500.0000  Ry
     scf convergence threshold =      1.0E-06
     mixing beta               =       0.7000
     number of iterations used =            8  plain     mixing
     Exchange-correlation=  SLA  PW   PBX  PBC
                           (   1   4   3   4   0   0   0)
     Hubbard projectors: ortho-atomic
     Hubbard parameters of DFT+U (Dudarev formulation) in eV:
     U(Fe1-3d) =  4.0000
     U(Fe2-3d) =  4.0000

     Internal variables: lda_plus_u = T, lda_plus_u_kind = 0

     celldm(1)=  10.030657  celldm(2)=   0.000000  celldm(3)=   0.000000
     celldm(4)=   0.000000  celldm(5)=   0.000000  celldm(6)=   0.000000

     crystal axes: (cart. coord. in units of alat)
               a(1) = (   0.408248   0.408248   0.816497 )  
               a(2) = (   0.408248   0.816497   0.408248 )  
               a(3) = (   0.816497   0.408248   0.408248 )  

     reciprocal axes: (cart. coord. in units 2 pi/alat)
               b(1) = ( -0.612372 -0.612372  1.837117 )  
               b(2) = ( -0.612372  1.837117 -0.612372 )  
               b(3) = (  1.837117 -0.612372 -0.612372 )  


     PseudoPot. # 1 for O  read from file:
     /home/k0750/k075000/PSPOT/o_pbe_v1.2.uspp.F.UPF
     MD5 check sum: 734c27235a0248c51dbae37a1fbe46ec
     Pseudo is Ultrasoft + core correction, Zval =  6.0
     Generated by new atomic code, or converted to UPF format
     Using radial grid of  737 points,  5 beta functions with: 
                l(1) =   0
                l(2) =   0
                l(3) =   1
                l(4) =   1
                l(5) =   2
     Q(r) pseudized with  8 coefficients,  rinner =    0.900   0.900   0.900
                                                       0.900   0.900

     PseudoPot. # 2 for Fe read from file:
     /home/k0750/k075000/PSPOT/fe_pbe_v1.5.uspp.F.UPF
     MD5 check sum: a130daea23fe5165f5d574ae7f82ed95
     Pseudo is Ultrasoft + core correction, Zval = 16.0
     Generated by new atomic code, or converted to UPF format
     Using radial grid of  861 points,  6 beta functions with: 
                l(1) =   0
                l(2) =   0
                l(3) =   1
                l(4) =   1
                l(5) =   2
                l(6) =   2
     Q(r) pseudized with  8 coefficients,  rinner =    1.000   1.000   1.000
                                                       1.000   1.000

     PseudoPot. # 3 for Fe read from file:
     /home/k0750/k075000/PSPOT/fe_pbe_v1.5.uspp.F.UPF
     MD5 check sum: a130daea23fe5165f5d574ae7f82ed95
     Pseudo is Ultrasoft + core correction, Zval = 16.0
     Generated by new atomic code, or converted to UPF format
     Using radial grid of  861 points,  6 beta functions with: 
                l(1) =   0
                l(2) =   0
                l(3) =   1
                l(4) =   1
                l(5) =   2
                l(6) =   2
     Q(r) pseudized with  8 coefficients,  rinner =    1.000   1.000   1.000
                                                       1.000   1.000

     atomic species   valence    mass     pseudopotential
        O              6.00    16.00000     O ( 1.00)
        Fe1           16.00    55.85000     Fe( 1.00)
        Fe2           16.00    55.85000     Fe( 1.00)

     Starting magnetic structure 
     atomic species   magnetization
        O            0.000
        Fe1          0.500
        Fe2         -0.500

     12 Sym. Ops., with inversion, found



   Cartesian axes

     site n.     atom                  positions (alat units)
         1           O   tau(   1) = (   0.4082483   0.4082483   0.4082483  )
         2           O   tau(   2) = (   1.2247449   1.2247449   1.2247449  )
         3           Fe1 tau(   3) = (   0.0000000   0.0000000   0.0000000  )
         4           Fe2 tau(   4) = (   0.8164966   0.8164966   0.8164966  )

     number of k points=    32  Methfessel-Paxton smearing, width (Ry)=  0.0200
                       cart. coord. in units 2pi/alat
        k(    1) = (   0.0000000   0.0000000   0.0000000), wk =   0.0046296
        k(    2) = (   0.3061862  -0.1020621  -0.1020621), wk =   0.0277778
        k(    3) = (   0.6123724  -0.2041241  -0.2041241), wk =   0.0277778
        k(    4) = (  -0.9185587   0.3061862   0.3061862), wk =   0.0138889
        k(    5) = (   0.2041241   0.2041241  -0.2041241), wk =   0.0277778
        k(    6) = (   0.5103104   0.1020621  -0.3061862), wk =   0.0555556
        k(    7) = (  -1.0206207   0.6123724   0.2041241), wk =   0.0555556
        k(    8) = (  -0.7144345   0.5103104   0.1020621), wk =   0.0555556
        k(    9) = (  -0.4082483   0.4082483  -0.0000000), wk =   0.0277778
        k(   10) = (   0.4082483   0.4082483  -0.4082483), wk =   0.0277778
        k(   11) = (  -1.1226828   0.9185587   0.1020621), wk =   0.0555556
        k(   12) = (  -0.8164966   0.8164966   0.0000000), wk =   0.0277778
        k(   13) = (  -0.6123724  -0.6123724   0.6123724), wk =   0.0138889
        k(   14) = (   0.1020621   0.1020621   0.1020621), wk =   0.0092593
        k(   15) = (   0.4082483   0.0000000   0.0000000), wk =   0.0277778
        k(   16) = (  -1.1226828   0.5103104   0.5103104), wk =   0.0277778
        k(   17) = (  -0.8164966   0.4082483   0.4082483), wk =   0.0277778
        k(   18) = (  -0.5103104   0.3061862   0.3061862), wk =   0.0277778
        k(   19) = (   0.3061862   0.3061862  -0.1020621), wk =   0.0277778
        k(   20) = (  -1.2247449   0.8164966   0.4082483), wk =   0.0555556
        k(   21) = (  -0.9185587   0.7144345   0.3061862), wk =   0.0555556
        k(   22) = (  -0.6123724   0.6123724   0.2041241), wk =   0.0555556
        k(   23) = (  -0.7144345  -0.7144345   0.9185587), wk =   0.0277778
        k(   24) = (  -0.4082483  -0.8164966   0.8164966), wk =   0.0555556
        k(   25) = (  -0.1020621  -0.9185587   0.7144345), wk =   0.0277778
        k(   26) = (  -0.5103104  -0.5103104   0.7144345), wk =   0.0277778
        k(   27) = (   0.2041241   0.2041241   0.2041241), wk =   0.0092593
        k(   28) = (  -1.3268069   0.7144345   0.7144345), wk =   0.0277778
        k(   29) = (  -1.0206207   0.6123724   0.6123724), wk =   0.0277778
        k(   30) = (  -0.8164966  -0.8164966   1.2247449), wk =   0.0277778
        k(   31) = (  -0.5103104  -0.9185587   1.1226828), wk =   0.0277778
        k(   32) = (  -0.3061862  -0.3061862  -0.3061862), wk =   0.0046296

     Dense  grid:    51859 G-vectors     FFT dimensions: (  72,  72,  72)

     Smooth grid:    13117 G-vectors     FFT dimensions: (  45,  45,  45)

     Estimated max dynamical RAM per process >      47.17 MB

     Estimated total dynamical RAM >     330.18 MB

     Check: negative core charge=   -0.000014
     Generating pointlists ...
     new r_m :   0.1684 (alat units)  1.6892 (a.u.) for type    1
     new r_m :   0.1684 (alat units)  1.6892 (a.u.) for type    2
     new r_m :   0.1684 (alat units)  1.6892 (a.u.) for type    3

     Initial potential from superposition of free atoms

     starting charge      42.0000, renormalised to      44.0000

     STARTING HUBBARD OCCUPATIONS:

     =================== HUBBARD OCCUPATIONS ===================
     ------------------------ ATOM    3 ------------------------
     Tr[ns(  3)] (up, down, total) =   5.00000  0.00000  5.00000
     Atomic magnetic moment for atom   3 =   5.00000
     SPIN  1
     eigenvalues:
       1.000  1.000  1.000  1.000  1.000
     eigenvectors (columns):
       1.000  0.000  0.000  0.000  0.000
       0.000  1.000  0.000  0.000  0.000
       0.000  0.000  1.000  0.000  0.000
       0.000  0.000  0.000  1.000  0.000
       0.000  0.000  0.000  0.000  1.000
     occupation matrix ns (before diag.):
       1.000  0.000  0.000  0.000  0.000
       0.000  1.000  0.000  0.000  0.000
       0.000  0.000  1.000  0.000  0.000
       0.000  0.000  0.000  1.000  0.000
       0.000  0.000  0.000  0.000  1.000
     SPIN  2
     eigenvalues:
       0.000  0.000  0.000  0.000  0.000
     eigenvectors (columns):
       1.000  0.000  0.000  0.000  0.000
       0.000  1.000  0.000  0.000  0.000
       0.000  0.000  1.000  0.000  0.000
       0.000  0.000  0.000  1.000  0.000
       0.000  0.000  0.000  0.000  1.000
     occupation matrix ns (before diag.):
       0.000  0.000  0.000  0.000  0.000
       0.000  0.000  0.000  0.000  0.000
       0.000  0.000  0.000  0.000  0.000
       0.000  0.000  0.000  0.000  0.000
       0.000  0.000  0.000  0.000  0.000
     ------------------------ ATOM    4 ------------------------
     Tr[ns(  4)] (up, down, total) =   0.00000  5.00000  5.00000
     Atomic magnetic moment for atom   4 =  -5.00000
     SPIN  1
     eigenvalues:
       0.000  0.000  0.000  0.000  0.000
     eigenvectors (columns):
       1.000  0.000  0.000  0.000  0.000
       0.000  1.000  0.000  0.000  0.000
       0.000  0.000  1.000  0.000  0.000
       0.000  0.000  0.000  1.000  0.000
       0.000  0.000  0.000  0.000  1.000
     occupation matrix ns (before diag.):
       0.000  0.000  0.000  0.000  0.000
       0.000  0.000  0.000  0.000  0.000
       0.000  0.000  0.000  0.000  0.000
       0.000  0.000  0.000  0.000  0.000
       0.000  0.000  0.000  0.000  0.000
     SPIN  2
     eigenvalues:
       1.000  1.000  1.000  1.000  1.000
     eigenvectors (columns):
       1.000  0.000  0.000  0.000  0.000
       0.000  1.000  0.000  0.000  0.000
       0.000  0.000  1.000  0.000  0.000
       0.000  0.000  0.000  1.000  0.000
       0.000  0.000  0.000  0.000  1.000
     occupation matrix ns (before diag.):
       1.000  0.000  0.000  0.000  0.000
       0.000  1.000  0.000  0.000  0.000
       0.000  0.000  1.000  0.000  0.000
       0.000  0.000  0.000  1.000  0.000
       0.000  0.000  0.000  0.000  1.000

     Number of occupied Hubbard levels =   10.0000

     Atomic wfc used for Hubbard projectors are orthogonalized

     Starting wfcs are   34 randomized atomic wfcs

     total cpu time spent up to now is        4.3 secs

     Self-consistent Calculation

     iteration #  1     ecut=    50.00 Ry     beta= 0.70
     Davidson diagonalization with overlap
     ethr =  1.00E-02,  avg # of iterations =  3.1

     =================== HUBBARD OCCUPATIONS ===================
     ------------------------ ATOM    3 ------------------------
     Tr[ns(  3)] (up, down, total) =   4.91218  0.28673  5.19891
     Atomic magnetic moment for atom   3 =   4.62545
     SPIN  1
     eigenvalues:
       0.977  0.977  0.977  0.990  0.990
     eigenvectors (columns):
      -0.000 -0.021 -0.005 -0.552 -0.833
       0.577 -0.564  0.590 -0.008  0.016
       0.577 -0.229 -0.784  0.018 -0.001
       0.000 -0.005  0.021  0.833 -0.552
      -0.577 -0.793 -0.194  0.010  0.015
     occupation matrix ns (before diag.):
       0.990 -0.000 -0.000  0.000 -0.000
      -0.000  0.977 -0.000 -0.000  0.000
      -0.000 -0.000  0.977  0.000  0.000
       0.000 -0.000  0.000  0.990 -0.000
      -0.000  0.000  0.000 -0.000  0.977
     SPIN  2
     eigenvalues:
       0.047  0.047  0.057  0.068  0.068
     eigenvectors (columns):
       0.460 -0.814 -0.000  0.332 -0.125
      -0.147 -0.249  0.577 -0.125  0.753
       0.289 -0.003  0.577 -0.590 -0.485
      -0.814 -0.460  0.000 -0.125 -0.332
       0.142 -0.252 -0.577 -0.715  0.269
     occupation matrix ns (before diag.):
       0.049 -0.003 -0.003  0.000 -0.006
      -0.003  0.063 -0.003 -0.005  0.003
      -0.003 -0.003  0.063  0.005  0.003
       0.000 -0.005  0.005  0.049 -0.000
      -0.006  0.003  0.003 -0.000  0.063
     ------------------------ ATOM    4 ------------------------
     Tr[ns(  4)] (up, down, total) =   0.28691  4.91215  5.19905
     Atomic magnetic moment for atom   4 =  -4.62524
     SPIN  1
     eigenvalues:
       0.047  0.047  0.057  0.068  0.068
     eigenvectors (columns):
       0.458 -0.816 -0.000  0.327 -0.134
      -0.147 -0.248  0.577 -0.102  0.757
       0.288 -0.004  0.577 -0.605 -0.467
      -0.816 -0.458  0.000 -0.134 -0.327
       0.141 -0.252 -0.577 -0.707  0.290
     occupation matrix ns (before diag.):
       0.049 -0.003 -0.003  0.000 -0.006
      -0.003  0.063 -0.003 -0.005  0.003
      -0.003 -0.003  0.063  0.005  0.003
       0.000 -0.005  0.005  0.049 -0.000
      -0.006  0.003  0.003 -0.000  0.063
     SPIN  2
     eigenvalues:
       0.977  0.977  0.977  0.990  0.990
     eigenvectors (columns):
      -0.000 -0.020 -0.005 -0.505 -0.863
       0.577 -0.574  0.581 -0.008  0.015
       0.577 -0.216 -0.787  0.017 -0.000
       0.000 -0.005  0.020  0.863 -0.505
      -0.577 -0.790 -0.207  0.009  0.015
     occupation matrix ns (before diag.):
       0.990 -0.000 -0.000  0.000 -0.000
      -0.000  0.977 -0.000 -0.000  0.000
      -0.000 -0.000  0.977  0.000  0.000
       0.000 -0.000  0.000  0.990 -0.000
      -0.000  0.000  0.000 -0.000  0.977

     Number of occupied Hubbard levels =   10.3980

     total cpu time spent up to now is        6.7 secs

     total energy              =    -563.45362755 Ry
     estimated scf accuracy    <       2.75269183 Ry

     total magnetization       =     0.00 Bohr mag/cell
     absolute magnetization    =     9.75 Bohr mag/cell

     iteration #  2     ecut=    50.00 Ry     beta= 0.70
     Davidson diagonalization with overlap
     ethr =  6.26E-03,  avg # of iterations =  5.6

     total cpu time spent up to now is        9.6 secs

     total energy              =    -560.86536531 Ry
     estimated scf accuracy    <      34.58624573 Ry

     total magnetization       =    -0.00 Bohr mag/cell
     absolute magnetization    =     1.39 Bohr mag/cell

     iteration #  3     ecut=    50.00 Ry     beta= 0.70
     Davidson diagonalization with overlap
     ethr =  6.26E-03,  avg # of iterations =  2.9

     total cpu time spent up to now is       11.7 secs

     total energy              =    -564.93849019 Ry
     estimated scf accuracy    <       0.11012655 Ry

     total magnetization       =     0.00 Bohr mag/cell
     absolute magnetization    =     7.92 Bohr mag/cell

     iteration #  4     ecut=    50.00 Ry     beta= 0.70
     Davidson diagonalization with overlap
     ethr =  2.50E-04,  avg # of iterations =  2.1

     total cpu time spent up to now is       13.6 secs

     total energy              =    -564.96748161 Ry
     estimated scf accuracy    <       0.02022914 Ry

     total magnetization       =    -0.01 Bohr mag/cell
     absolute magnetization    =     7.62 Bohr mag/cell

     iteration #  5     ecut=    50.00 Ry     beta= 0.70
     Davidson diagonalization with overlap
     ethr =  4.60E-05,  avg # of iterations =  3.3

     total cpu time spent up to now is       15.7 secs

     total energy              =    -564.97652428 Ry
     estimated scf accuracy    <       0.01904561 Ry

     total magnetization       =     0.11 Bohr mag/cell
     absolute magnetization    =     7.58 Bohr mag/cell

     iteration #  6     ecut=    50.00 Ry     beta= 0.70
     Davidson diagonalization with overlap
     ethr =  4.33E-05,  avg # of iterations =  1.4

     total cpu time spent up to now is       17.3 secs

     total energy              =    -564.97793132 Ry
     estimated scf accuracy    <       0.07253331 Ry

     total magnetization       =    -0.39 Bohr mag/cell
     absolute magnetization    =     7.58 Bohr mag/cell

     iteration #  7     ecut=    50.00 Ry     beta= 0.70
     Davidson diagonalization with overlap
     ethr =  4.33E-05,  avg # of iterations =  1.0

     total cpu time spent up to now is       18.9 secs

     total energy              =    -564.96792099 Ry
     estimated scf accuracy    <       0.01087212 Ry

     total magnetization       =     0.03 Bohr mag/cell
     absolute magnetization    =     7.58 Bohr mag/cell

     iteration #  8     ecut=    50.00 Ry     beta= 0.70
     Davidson diagonalization with overlap
     ethr =  2.47E-05,  avg # of iterations =  4.3

     total cpu time spent up to now is       21.2 secs

     total energy              =    -564.98691662 Ry
     estimated scf accuracy    <       0.02525588 Ry

     total magnetization       =     0.21 Bohr mag/cell
     absolute magnetization    =     7.54 Bohr mag/cell

     iteration #  9     ecut=    50.00 Ry     beta= 0.70
     Davidson diagonalization with overlap
     ethr =  2.47E-05,  avg # of iterations =  2.9

     total cpu time spent up to now is       23.0 secs

     total energy              =    -564.99190793 Ry
     estimated scf accuracy    <       0.00279833 Ry

     total magnetization       =    -0.04 Bohr mag/cell
     absolute magnetization    =     7.56 Bohr mag/cell

     iteration # 10     ecut=    50.00 Ry     beta= 0.70
     Davidson diagonalization with overlap
     ethr =  6.36E-06,  avg # of iterations =  1.8

     total cpu time spent up to now is       24.6 secs

     total energy              =    -564.99245254 Ry
     estimated scf accuracy    <       0.00438399 Ry

     total magnetization       =    -0.10 Bohr mag/cell
     absolute magnetization    =     7.56 Bohr mag/cell

     iteration # 11     ecut=    50.00 Ry     beta= 0.70
     Davidson diagonalization with overlap
     ethr =  6.36E-06,  avg # of iterations =  1.2

     total cpu time spent up to now is       26.2 secs

     total energy              =    -564.99265513 Ry
     estimated scf accuracy    <       0.00012692 Ry

     total magnetization       =    -0.01 Bohr mag/cell
     absolute magnetization    =     7.55 Bohr mag/cell

     iteration # 12     ecut=    50.00 Ry     beta= 0.70
     Davidson diagonalization with overlap
     ethr =  2.88E-07,  avg # of iterations =  3.6

     total cpu time spent up to now is       28.0 secs

     total energy              =    -564.99268020 Ry
     estimated scf accuracy    <       0.00000781 Ry

     total magnetization       =     0.00 Bohr mag/cell
     absolute magnetization    =     7.55 Bohr mag/cell

     iteration # 13     ecut=    50.00 Ry     beta= 0.70
     Davidson diagonalization with overlap
     ethr =  1.77E-08,  avg # of iterations =  3.4

     total cpu time spent up to now is       29.8 secs

     total energy              =    -564.99268223 Ry
     estimated scf accuracy    <       0.00000287 Ry

     total magnetization       =    -0.00 Bohr mag/cell
     absolute magnetization    =     7.55 Bohr mag/cell

     iteration # 14     ecut=    50.00 Ry     beta= 0.70
     Davidson diagonalization with overlap
     ethr =  6.52E-09,  avg # of iterations =  3.8
 
     Magnetic moment per site  (integrated on atomic sphere of radius R)
     atom   1 (R=0.168)  charge=  5.8719  magn= -0.0000
     atom   2 (R=0.168)  charge=  5.8719  magn= -0.0000
     atom   3 (R=0.168)  charge= 13.5554  magn=  3.4919
     atom   4 (R=0.168)  charge= 13.5543  magn= -3.4930

     total cpu time spent up to now is       31.7 secs

     End of self-consistent calculation

     =================== HUBBARD OCCUPATIONS ===================
     ------------------------ ATOM    3 ------------------------
     Tr[ns(  3)] (up, down, total) =   4.93968  1.21843  6.15811
     Atomic magnetic moment for atom   3 =   3.72125
     SPIN  1
     eigenvalues:
       0.986  0.986  0.989  0.990  0.990
     eigenvectors (columns):
       0.191 -0.071 -0.000 -0.571 -0.795
       0.616  0.510 -0.577 -0.068  0.151
       0.133 -0.788 -0.577  0.165 -0.016
       0.071  0.191  0.000  0.795 -0.571
       0.749 -0.279  0.577  0.097  0.135
     occupation matrix ns (before diag.):
       0.990 -0.000 -0.000  0.000 -0.001
      -0.000  0.987  0.001 -0.001 -0.001
      -0.000  0.001  0.987  0.001 -0.001
       0.000 -0.001  0.001  0.990 -0.000
      -0.001 -0.001 -0.001 -0.000  0.987
     SPIN  2
     eigenvalues:
       0.044  0.098  0.098  0.489  0.489
     eigenvectors (columns):
      -0.000  0.589 -0.774 -0.231  0.020
      -0.577 -0.073 -0.175  0.336 -0.719
      -0.577  0.188  0.024  0.455  0.651
       0.000 -0.774 -0.589  0.020  0.231
       0.577  0.115 -0.151  0.791 -0.068
     occupation matrix ns (before diag.):
       0.119 -0.036 -0.036  0.000 -0.072
      -0.036  0.326 -0.141 -0.062  0.141
      -0.036 -0.141  0.326  0.062  0.141
       0.000 -0.062  0.062  0.119 -0.000
      -0.072  0.141  0.141 -0.000  0.326
     ------------------------ ATOM    4 ------------------------
     Tr[ns(  4)] (up, down, total) =   1.21714  4.93969  6.15683
     Atomic magnetic moment for atom   4 =  -3.72254
     SPIN  1
     eigenvalues:
       0.044  0.098  0.098  0.488  0.488
     eigenvectors (columns):
      -0.000 -0.465  0.855 -0.231  0.022
      -0.577  0.099  0.161  0.329 -0.723
      -0.577 -0.189  0.005  0.461  0.647
       0.000  0.855  0.465  0.022  0.231
       0.577 -0.090  0.166  0.791 -0.076
     occupation matrix ns (before diag.):
       0.119 -0.036 -0.036  0.000 -0.072
      -0.036  0.326 -0.141 -0.062  0.141
      -0.036 -0.141  0.326  0.062  0.141
       0.000 -0.062  0.062  0.119 -0.000
      -0.072  0.141  0.141 -0.000  0.326
     SPIN  2
     eigenvalues:
       0.986  0.986  0.989  0.990  0.990
     eigenvectors (columns):
       0.191 -0.071 -0.000 -0.557 -0.805
       0.617  0.508 -0.577 -0.071  0.150
       0.132 -0.788 -0.577  0.166 -0.014
       0.071  0.191  0.000  0.805 -0.557
       0.749 -0.280  0.577  0.095  0.137
     occupation matrix ns (before diag.):
       0.990 -0.000 -0.000  0.000 -0.001
      -0.000  0.987  0.001 -0.001 -0.001
      -0.000  0.001  0.987  0.001 -0.001
       0.000 -0.001  0.001  0.990 -0.000
      -0.001 -0.001 -0.001 -0.000  0.987

     Number of occupied Hubbard levels =   12.3149

 ------ SPIN UP ------------


          k = 0.0000 0.0000 0.0000 (  1701 PWs)   bands (ev):

   -75.8239 -71.3724 -42.0672 -41.7570 -41.7570 -37.5833 -37.4948 -37.4948
    -6.1004  -4.9291   5.5713   7.1899   7.1899   8.8621   8.8621   9.0601
    10.7316  10.7324  10.7324  11.3796  11.3796  14.0464  14.0464  14.5147
    16.2260  17.3838

          k = 0.3062-0.1021-0.1021 (  1659 PWs)   bands (ev):

   -75.8231 -71.3714 -42.0658 -41.7663 -41.7593 -37.5815 -37.5067 -37.4977
    -5.8615  -4.9134   5.9836   7.1352   7.3006   8.2793   8.7110   9.0029
     9.6999  10.1674  10.5768  11.4727  11.6174  13.9621  14.2644  15.8789
    16.3337  17.2370

          k = 0.6124-0.2041-0.2041 (  1636 PWs)   bands (ev):

   -75.8215 -71.3694 -42.0631 -41.7848 -41.7640 -37.5779 -37.5304 -37.5035
    -5.3402  -4.8754   6.5094   6.8799   7.3752   7.4081   8.5482   8.7828
     8.8907  10.0334  10.0581  11.3898  11.7046  13.8390  14.6783  16.4763
    16.8553  17.3335

          k =-0.9186 0.3062 0.3062 (  1636 PWs)   bands (ev):

   -75.8207 -71.3684 -42.0618 -41.7941 -41.7663 -37.5762 -37.5422 -37.5064
    -5.0061  -4.9023   6.3016   6.9170   7.0202   7.3286   8.5668   8.6709
     9.3304   9.3562   9.9846  11.4296  11.8254  13.7642  14.8642  16.6204
    17.2582  17.3358

          k = 0.2041 0.2041-0.2041 (  1646 PWs)   bands (ev):

   -75.8231 -71.3714 -42.0658 -41.7663 -41.7593 -37.5815 -37.5067 -37.4977
    -5.8378  -4.9433   6.0620   7.1107   7.3381   8.2527   8.6896   9.0362
     9.5945  10.0927  10.3217  11.7564  11.7638  13.9208  14.2808  16.0048
    16.3374  17.1515

          k = 0.5103 0.1021-0.3062 (  1646 PWs)   bands (ev):

   -75.8219 -71.3699 -42.0638 -41.7785 -41.7646 -37.5788 -37.5222 -37.5043
    -5.4468  -4.9200   6.5175   7.0990   7.2226   7.7759   7.9831   9.0270
     9.2369   9.7786  10.4552  11.1912  11.7266  14.1335  14.4234  16.3496
    16.7964  17.3038

          k =-1.0206 0.6124 0.2041 (  1636 PWs)   bands (ev):

   -75.8207 -71.3684 -42.0618 -41.7894 -41.7710 -37.5761 -37.5362 -37.5124
    -5.0402  -4.8704   6.5113   6.6973   7.1545   7.8185   7.9543   8.3253
     9.3533   9.5898  10.3108  11.2206  11.5223  14.1590  14.6922  16.5500
    17.1182  17.3526

          k =-0.7144 0.5103 0.1021 (  1633 PWs)   bands (ev):

   -75.8207 -71.3684 -42.0618 -41.7894 -41.7710 -37.5761 -37.5362 -37.5124
    -5.0441  -4.8688   6.3771   7.0250   7.1885   7.6914   7.9562   8.2432
     9.2673   9.6364  10.2885  11.1360  11.6235  14.1515  14.7010  16.5688
    17.0302  17.5249

          k =-0.4082 0.4082-0.0000 (  1643 PWs)   bands (ev):

   -75.8219 -71.3699 -42.0638 -41.7785 -41.7646 -37.5788 -37.5222 -37.5042
    -5.4857  -4.8777   6.5882   7.1220   7.1277   7.8363   8.0018   8.9579
     9.1386   9.7464  10.5937  11.0975  11.8020  14.1358  14.4112  16.3632
    16.8923  17.3742

          k = 0.4082 0.4082-0.4082 (  1639 PWs)   bands (ev):

   -75.8215 -71.3694 -42.0631 -41.7849 -41.7640 -37.5779 -37.5304 -37.5035
    -5.2557  -4.9664   6.4253   6.9358   7.2244   7.3937   8.5699   8.7594
     9.2630   9.7071  10.0063  11.7179  11.8429  13.8254  14.7145  16.4425
    17.3414  17.3802

          k =-1.1227 0.9186 0.1021 (  1629 PWs)   bands (ev):

   -75.8207 -71.3684 -42.0618 -41.7894 -41.7710 -37.5760 -37.5361 -37.5124
    -4.9867  -4.9234   6.0935   7.0749   7.2801   7.5083   7.7503   8.8345
     9.4466   9.6559   9.9145  11.4595  11.6742  14.1196  14.7478  16.5547
    17.1292  17.5236

          k =-0.8165 0.8165 0.0000 (  1630 PWs)   bands (ev):

   -75.8203 -71.3679 -42.0611 -41.7831 -41.7831 -37.5751 -37.5280 -37.5279
    -4.8770  -4.8768   6.6284   6.8242   7.0803   7.4910   7.7357   8.2969
     9.0845   9.9124  10.0767  11.2601  11.5639  14.4823  14.5680  16.5140
    17.2725  17.3808

          k =-0.6124-0.6124 0.6124 (  1622 PWs)   bands (ev):

   -75.8207 -71.3684 -42.0618 -41.7941 -41.7663 -37.5760 -37.5421 -37.5064
    -4.9762  -4.9270   5.6240   7.1532   7.2709   7.2797   8.3096   9.3491
     9.5689   9.5692   9.6173  11.5217  11.7430  13.8874  14.9136  16.6529
    17.5438  17.6194

          k = 0.1021 0.1021 0.1021 (  1665 PWs)   bands (ev):

   -75.8239 -71.3724 -42.0671 -41.7570 -41.7570 -37.5834 -37.4948 -37.4948
    -6.0318  -5.0200   5.7746   7.2208   7.2208   8.8691   8.8691   8.9576
    10.3446  10.4360  10.4360  11.6754  11.6754  14.0316  14.0316  15.0179
    16.1291  17.3365

          k = 0.4082 0.0000 0.0000 (  1640 PWs)   bands (ev):

   -75.8231 -71.3714 -42.0658 -41.7663 -41.7593 -37.5816 -37.5066 -37.4977
    -5.7700  -5.0244   6.1477   7.1650   7.3132   8.1976   8.7193   8.9345
     9.4633  10.6015  10.6255  11.1552  11.3910  14.0204  14.2557  15.9915
    16.2721  17.4155

          k =-1.1227 0.5103 0.5103 (  1649 PWs)   bands (ev):

   -75.8215 -71.3694 -42.0631 -41.7849 -41.7640 -37.5780 -37.5304 -37.5035
    -5.2930  -4.9222   6.2806   6.8085   7.3551   7.5641   8.7502   8.8297
     8.9234  10.1114  10.4221  10.9121  11.5345  13.9203  14.6775  16.4647
    16.6423  17.4399

          k =-0.8165 0.4082 0.4082 (  1632 PWs)   bands (ev):

   -75.8207 -71.3684 -42.0618 -41.7941 -41.7663 -37.5761 -37.5422 -37.5064
    -5.0002  -4.9068   6.0742   6.8254   7.3136   7.3404   8.4374   8.8352
     9.3467   9.3942   9.9732  11.4996  11.7523  13.7940  14.8776  16.6271
    17.2995  17.3874

          k =-0.5103 0.3062 0.3062 (  1644 PWs)   bands (ev):

   -75.8215 -71.3694 -42.0631 -41.7849 -41.7640 -37.5779 -37.5304 -37.5035
    -5.3269  -4.8921   6.6544   6.9118   7.1880   7.3951   8.4917   8.7464
     9.0003   9.8336   9.9884  11.7562  11.7900  13.7905  14.6973  16.4720
    17.2185  17.2830

          k = 0.3062 0.3062-0.1021 (  1646 PWs)   bands (ev):

   -75.8231 -71.3714 -42.0658 -41.7663 -41.7593 -37.5816 -37.5067 -37.4977
    -5.7035  -5.1033   6.3456   7.0882   7.3922   8.1512   8.6723   9.0517
     9.1524  10.1401  10.4253  11.5010  11.9227  13.9327  14.2900  16.1490
    16.5001  17.2114

          k =-1.2247 0.8165 0.4082 (  1642 PWs)   bands (ev):

   -75.8219 -71.3699 -42.0638 -41.7785 -41.7646 -37.5788 -37.5222 -37.5043
    -5.3393  -5.0342   6.4196   7.0350   7.3583   7.7362   7.9292   9.1401
     9.4287   9.8503  10.3144  11.1276  11.6705  14.1360  14.4435  16.3456
    16.6643  17.2514

          k =-0.9186 0.7144 0.3062 (  1631 PWs)   bands (ev):

   -75.8207 -71.3684 -42.0618 -41.7894 -41.7710 -37.5761 -37.5361 -37.5124
    -5.0146  -4.8936   6.3446   6.6476   7.1763   7.8064   7.8441   8.6745
     9.4751   9.5410  10.1763  11.3878  11.5221  14.1475  14.7126  16.5325
    17.1928  17.2972

          k =-0.6124 0.6124 0.2041 (  1623 PWs)   bands (ev):

   -75.8207 -71.3684 -42.0618 -41.7894 -41.7710 -37.5761 -37.5361 -37.5124
    -5.0239  -4.8887   6.2107   7.1583   7.3032   7.4790   7.8212   8.5449
     9.3078   9.6590  10.0918  11.3008  11.6696  14.1292  14.7307  16.5716
    17.0420  17.6239

          k =-0.7144-0.7144 0.9186 (  1635 PWs)   bands (ev):

   -75.8215 -71.3694 -42.0631 -41.7849 -41.7640 -37.5779 -37.5303 -37.5035
    -5.1471  -5.0746   6.2235   6.7833   7.3727   7.4719   8.6420   8.8075
     9.4732   9.7711  10.0799  11.5527  11.5742  13.9084  14.7121  16.4113
    17.0002  17.4493

          k =-0.4082-0.8165 0.8165 (  1632 PWs)   bands (ev):

   -75.8207 -71.3684 -42.0618 -41.7894 -41.7710 -37.5760 -37.5361 -37.5124
    -4.9775  -4.9304   6.1267   6.8423   7.2227   7.6756   7.7744   8.9054
     9.5063   9.5764   9.9903  11.4324  11.6645  14.1304  14.7386  16.5341
    17.1855  17.3818

          k =-0.1021-0.9186 0.7144 (  1634 PWs)   bands (ev):

   -75.8203 -71.3679 -42.0611 -41.7831 -41.7831 -37.5751 -37.5280 -37.5279
    -4.8770  -4.8768   6.6286   6.8234   7.0827   7.4851   7.7403   8.2962
     9.0846   9.9261  10.0597  11.2698  11.5575  14.4826  14.5677  16.5143
    17.2698  17.3830

          k =-0.5103-0.5103 0.7144 (  1628 PWs)   bands (ev):

   -75.8207 -71.3684 -42.0618 -41.7941 -41.7663 -37.5760 -37.5422 -37.5064
    -4.9859  -4.9185   5.7506   6.9650   7.2848   7.4279   8.3343   9.1845
     9.3488   9.5073   9.8687  11.6010  11.6569  13.8553  14.9022  16.6433
    17.4434  17.4914

          k = 0.2041 0.2041 0.2041 (  1653 PWs)   bands (ev):

   -75.8239 -71.3723 -42.0671 -41.7570 -41.7570 -37.5835 -37.4948 -37.4948
    -5.8384  -5.2569   6.3045   7.2871   7.2871   8.5319   8.8837   8.8837
     9.8094  10.0696  10.0696  12.0374  12.0374  14.0018  14.0018  15.8268
    16.1995  17.2407

          k =-1.3268 0.7144 0.7144 (  1652 PWs)   bands (ev):

   -75.8231 -71.3714 -42.0657 -41.7663 -41.7593 -37.5817 -37.5066 -37.4977
    -5.5820  -5.2378   6.4762   7.0799   7.3648   8.1175   8.7046   8.8766
     9.2882  10.3352  10.6322  11.0655  11.6329  14.0317  14.2643  16.1615
    16.2256  17.3750

          k =-1.0206 0.6124 0.6124 (  1648 PWs)   bands (ev):

   -75.8215 -71.3694 -42.0631 -41.7849 -41.7640 -37.5779 -37.5303 -37.5035
    -5.1988  -5.0195   6.1714   6.7415   7.3540   7.5931   8.7109   8.8412
     9.2455  10.1423  10.2481  11.0735  11.4525  13.9548  14.6941  16.4220
    16.7054  17.4974

          k =-0.8165-0.8165 1.2247 (  1649 PWs)   bands (ev):

   -75.8231 -71.3714 -42.0657 -41.7663 -41.7593 -37.5817 -37.5066 -37.4977
    -5.4866  -5.3394   6.6571   6.9648   7.4066   8.1038   8.6788   8.9051
     9.1262  10.1410  10.5617  11.2264  11.8614  13.9858  14.2822  16.1290
    16.4664  17.2733

          k =-0.5103-0.9186 1.1227 (  1646 PWs)   bands (ev):

   -75.8219 -71.3699 -42.0638 -41.7785 -41.7646 -37.5789 -37.5222 -37.5043
    -5.2044  -5.1724   6.3821   6.9948   7.4091   7.7501   7.8939   9.1922
     9.5175   9.8714  10.3418  10.9568  11.6941  14.1406  14.4512  16.3599
    16.6254  17.2190

          k =-0.3062-0.3062-0.3062 (  1642 PWs)   bands (ev):

   -75.8239 -71.3723 -42.0670 -41.7570 -41.7570 -37.5836 -37.4948 -37.4948
    -5.5710  -5.5458   6.7323   7.3229   7.3229   8.0865   8.8913   8.8913
     9.6529   9.9226   9.9226  12.1805  12.1805  13.9869  13.9869  15.8179
    17.1922  17.1922

 ------ SPIN DOWN ----------


          k = 0.0000 0.0000 0.0000 (  1701 PWs)   bands (ev):

   -75.8240 -71.3724 -42.0676 -41.7569 -41.7569 -37.5832 -37.4949 -37.4949
    -6.1004  -4.9291   5.5714   7.1900   7.1900   8.8618   8.8618   9.0601
    10.7317  10.7325  10.7325  11.3796  11.3796  14.0455  14.0455  14.5146
    16.2273  17.3837

          k = 0.3062-0.1021-0.1021 (  1659 PWs)   bands (ev):

   -75.8232 -71.3714 -42.0663 -41.7662 -41.7592 -37.5814 -37.5067 -37.4978
    -5.8615  -4.9133   5.9836   7.1353   7.3007   8.2791   8.7108   9.0028
     9.6999  10.1673  10.5768  11.4727  11.6175  13.9612  14.2635  15.8790
    16.3349  17.2370

          k = 0.6124-0.2041-0.2041 (  1636 PWs)   bands (ev):

   -75.8216 -71.3694 -42.0636 -41.7847 -41.7639 -37.5778 -37.5305 -37.5036
    -5.3401  -4.8754   6.5094   6.8799   7.3751   7.4081   8.5482   8.7828
     8.8906  10.0334  10.0580  11.3899  11.7045  13.8382  14.6776  16.4775
    16.8554  17.3333

          k =-0.9186 0.3062 0.3062 (  1636 PWs)   bands (ev):

   -75.8208 -71.3684 -42.0622 -41.7940 -41.7662 -37.5760 -37.5423 -37.5065
    -5.0061  -4.9022   6.3016   6.9171   7.0200   7.3284   8.5667   8.6710
     9.3303   9.3563   9.9845  11.4297  11.8253  13.7635  14.8634  16.6216
    17.2581  17.3357

          k = 0.2041 0.2041-0.2041 (  1646 PWs)   bands (ev):

   -75.8232 -71.3714 -42.0663 -41.7662 -41.7592 -37.5814 -37.5067 -37.4977
    -5.8378  -4.9433   6.0620   7.1108   7.3381   8.2525   8.6895   9.0361
     9.5945  10.0927  10.3217  11.7565  11.7637  13.9199  14.2800  16.0050
    16.3384  17.1514

          k = 0.5103 0.1021-0.3062 (  1646 PWs)   bands (ev):

   -75.8220 -71.3699 -42.0643 -41.7784 -41.7645 -37.5787 -37.5223 -37.5043
    -5.4467  -4.9199   6.5175   7.0989   7.2228   7.7760   7.9828   9.0270
     9.2369   9.7785  10.4552  11.1911  11.7267  14.1327  14.4226  16.3507
    16.7965  17.3037

          k =-1.0206 0.6124 0.2041 (  1636 PWs)   bands (ev):

   -75.8208 -71.3684 -42.0623 -41.7893 -41.7709 -37.5760 -37.5362 -37.5125
    -5.0402  -4.8704   6.5112   6.6974   7.1545   7.8184   7.9542   8.3253
     9.3532   9.5898  10.3108  11.2205  11.5222  14.1583  14.6914  16.5512
    17.1181  17.3524

          k =-0.7144 0.5103 0.1021 (  1633 PWs)   bands (ev):

   -75.8208 -71.3684 -42.0623 -41.7893 -41.7709 -37.5759 -37.5362 -37.5125
    -5.0440  -4.8687   6.3770   7.0250   7.1885   7.6914   7.9560   8.2432
     9.2673   9.6364  10.2884  11.1359  11.6235  14.1509  14.7002  16.5700
    17.0301  17.5248

          k =-0.4082 0.4082-0.0000 (  1643 PWs)   bands (ev):

   -75.8220 -71.3699 -42.0643 -41.7784 -41.7645 -37.5786 -37.5223 -37.5043
    -5.4857  -4.8776   6.5882   7.1221   7.1276   7.8364   8.0016   8.9579
     9.1386   9.7463  10.5936  11.0974  11.8020  14.1351  14.4104  16.3642
    16.8924  17.3740

          k = 0.4082 0.4082-0.4082 (  1639 PWs)   bands (ev):

   -75.8216 -71.3694 -42.0636 -41.7848 -41.7639 -37.5777 -37.5304 -37.5035
    -5.2557  -4.9663   6.4253   6.9358   7.2245   7.3935   8.5698   8.7595
     9.2631   9.7071  10.0063  11.7177  11.8430  13.8247  14.7138  16.4437
    17.3413  17.3801

          k =-1.1227 0.9186 0.1021 (  1629 PWs)   bands (ev):

   -75.8208 -71.3684 -42.0623 -41.7893 -41.7709 -37.5759 -37.5362 -37.5125
    -4.9867  -4.9233   6.0935   7.0749   7.2800   7.5083   7.7501   8.8345
     9.4466   9.6559   9.9145  11.4593  11.6742  14.1189  14.7472  16.5559
    17.1290  17.5234

          k =-0.8165 0.8165 0.0000 (  1630 PWs)   bands (ev):

   -75.8204 -71.3679 -42.0616 -41.7830 -41.7830 -37.5750 -37.5281 -37.5280
    -4.8770  -4.8768   6.6283   6.8241   7.0801   7.4910   7.7358   8.2968
     9.0845   9.9124  10.0768  11.2601  11.5638  14.4815  14.5673  16.5153
    17.2723  17.3806

          k =-0.6124-0.6124 0.6124 (  1622 PWs)   bands (ev):

   -75.8208 -71.3684 -42.0623 -41.7940 -41.7662 -37.5758 -37.5422 -37.5064
    -4.9761  -4.9269   5.6239   7.1532   7.2708   7.2797   8.3094   9.3492
     9.5689   9.5692   9.6173  11.5214  11.7430  13.8867  14.9129  16.6541
    17.5437  17.6193

          k = 0.1021 0.1021 0.1021 (  1665 PWs)   bands (ev):

   -75.8240 -71.3724 -42.0676 -41.7569 -41.7569 -37.5832 -37.4949 -37.4949
    -6.0317  -5.0199   5.7747   7.2209   7.2209   8.8689   8.8689   8.9576
    10.3447  10.4360  10.4360  11.6754  11.6754  14.0306  14.0306  15.0179
    16.1303  17.3364

          k = 0.4082 0.0000 0.0000 (  1640 PWs)   bands (ev):

   -75.8232 -71.3714 -42.0662 -41.7662 -41.7592 -37.5814 -37.5067 -37.4978
    -5.7699  -5.0243   6.1478   7.1651   7.3132   8.1974   8.7192   8.9345
     9.4633  10.6015  10.6254  11.1552  11.3909  14.0195  14.2549  15.9917
    16.2732  17.4154

          k =-1.1227 0.5103 0.5103 (  1649 PWs)   bands (ev):

   -75.8216 -71.3694 -42.0636 -41.7847 -41.7639 -37.5778 -37.5305 -37.5036
    -5.2930  -4.9221   6.2806   6.8084   7.3549   7.5641   8.7502   8.8297
     8.9234  10.1114  10.4221  10.9122  11.5343  13.9195  14.6768  16.4659
    16.6422  17.4398

          k =-0.8165 0.4082 0.4082 (  1632 PWs)   bands (ev):

   -75.8208 -71.3684 -42.0623 -41.7940 -41.7662 -37.5760 -37.5423 -37.5065
    -5.0001  -4.9068   6.0741   6.8254   7.3134   7.3404   8.4373   8.8353
     9.3468   9.3942   9.9732  11.4997  11.7521  13.7933  14.8769  16.6283
    17.2994  17.3873

          k =-0.5103 0.3062 0.3062 (  1644 PWs)   bands (ev):

   -75.8216 -71.3694 -42.0636 -41.7847 -41.7639 -37.5777 -37.5305 -37.5036
    -5.3269  -4.8921   6.6543   6.9119   7.1880   7.3950   8.4916   8.7464
     9.0003   9.8335   9.9884  11.7563  11.7898  13.7897  14.6966  16.4732
    17.2185  17.2828

          k = 0.3062 0.3062-0.1021 (  1646 PWs)   bands (ev):

   -75.8232 -71.3714 -42.0662 -41.7662 -41.7592 -37.5814 -37.5067 -37.4977
    -5.7034  -5.1032   6.3456   7.0883   7.3923   8.1511   8.6721   9.0517
     9.1524  10.1401  10.4253  11.5010  11.9226  13.9319  14.2891  16.1501
    16.5002  17.2113

          k =-1.2247 0.8165 0.4082 (  1642 PWs)   bands (ev):

   -75.8220 -71.3699 -42.0642 -41.7784 -41.7645 -37.5787 -37.5223 -37.5043
    -5.3393  -5.0341   6.4196   7.0349   7.3583   7.7362   7.9290   9.1401
     9.4287   9.8504  10.3144  11.1275  11.6704  14.1353  14.4427  16.3466
    16.6643  17.2513

          k =-0.9186 0.7144 0.3062 (  1631 PWs)   bands (ev):

   -75.8208 -71.3684 -42.0623 -41.7893 -41.7709 -37.5759 -37.5362 -37.5125
    -5.0145  -4.8936   6.3446   6.6475   7.1761   7.8064   7.8440   8.6745
     9.4751   9.5410  10.1763  11.3878  11.5220  14.1468  14.7119  16.5337
    17.1926  17.2970

          k =-0.6124 0.6124 0.2041 (  1623 PWs)   bands (ev):

   -75.8208 -71.3684 -42.0623 -41.7893 -41.7709 -37.5759 -37.5362 -37.5125
    -5.0239  -4.8886   6.2106   7.1582   7.3033   7.4789   7.8211   8.5449
     9.3078   9.6591  10.0917  11.3006  11.6696  14.1285  14.7300  16.5729
    17.0418  17.6237

          k =-0.7144-0.7144 0.9186 (  1635 PWs)   bands (ev):

   -75.8216 -71.3694 -42.0636 -41.7848 -41.7639 -37.5777 -37.5304 -37.5035
    -5.1471  -5.0746   6.2236   6.7833   7.3726   7.4719   8.6418   8.8076
     9.4732   9.7712  10.0800  11.5524  11.5742  13.9077  14.7115  16.4125
    17.0001  17.4491

          k =-0.4082-0.8165 0.8165 (  1632 PWs)   bands (ev):

   -75.8208 -71.3684 -42.0623 -41.7893 -41.7709 -37.5759 -37.5362 -37.5125
    -4.9775  -4.9304   6.1266   6.8422   7.2226   7.6756   7.7743   8.9054
     9.5064   9.5764   9.9903  11.4323  11.6644  14.1297  14.7379  16.5353
    17.1853  17.3816

          k =-0.1021-0.9186 0.7144 (  1634 PWs)   bands (ev):

   -75.8204 -71.3679 -42.0616 -41.7830 -41.7830 -37.5750 -37.5281 -37.5280
    -4.8770  -4.8768   6.6285   6.8233   7.0825   7.4851   7.7404   8.2961
     9.0845   9.9261  10.0598  11.2697  11.5574  14.4818  14.5671  16.5156
    17.2696  17.3828

          k =-0.5103-0.5103 0.7144 (  1628 PWs)   bands (ev):

   -75.8208 -71.3684 -42.0623 -41.7940 -41.7662 -37.5759 -37.5422 -37.5064
    -4.9858  -4.9185   5.7506   6.9650   7.2846   7.4279   8.3341   9.1845
     9.3489   9.5072   9.8687  11.6007  11.6570  13.8546  14.9016  16.6445
    17.4432  17.4913

          k = 0.2041 0.2041 0.2041 (  1653 PWs)   bands (ev):

   -75.8240 -71.3723 -42.0675 -41.7569 -41.7569 -37.5834 -37.4949 -37.4949
    -5.8384  -5.2569   6.3045   7.2872   7.2872   8.5319   8.8834   8.8834
     9.8095  10.0697  10.0697  12.0374  12.0374  14.0009  14.0009  15.8275
    16.1999  17.2406

          k =-1.3268 0.7144 0.7144 (  1652 PWs)   bands (ev):

   -75.8232 -71.3714 -42.0662 -41.7662 -41.7592 -37.5815 -37.5067 -37.4978
    -5.5820  -5.2377   6.4763   7.0800   7.3649   8.1174   8.7045   8.8766
     9.2881  10.3352  10.6322  11.0655  11.6328  14.0309  14.2635  16.1627
    16.2257  17.3749

          k =-1.0206 0.6124 0.6124 (  1648 PWs)   bands (ev):

   -75.8216 -71.3694 -42.0636 -41.7848 -41.7639 -37.5778 -37.5304 -37.5036
    -5.1987  -5.0194   6.1715   6.7414   7.3539   7.5931   8.7107   8.8413
     9.2455  10.1423  10.2483  11.0735  11.4523  13.9541  14.6934  16.4232
    16.7053  17.4972

          k =-0.8165-0.8165 1.2247 (  1649 PWs)   bands (ev):

   -75.8232 -71.3714 -42.0662 -41.7662 -41.7592 -37.5815 -37.5067 -37.4978
    -5.4866  -5.3393   6.6571   6.9649   7.4066   8.1037   8.6787   8.9051
     9.1261  10.1410  10.5617  11.2263  11.8613  13.9850  14.2814  16.1302
    16.4664  17.2732

          k =-0.5103-0.9186 1.1227 (  1646 PWs)   bands (ev):

   -75.8220 -71.3699 -42.0642 -41.7784 -41.7645 -37.5787 -37.5223 -37.5043
    -5.2044  -5.1723   6.3822   6.9947   7.4092   7.7501   7.8937   9.1921
     9.5174   9.8715  10.3418  10.9567  11.6940  14.1399  14.4504  16.3611
    16.6253  17.2189

          k =-0.3062-0.3062-0.3062 (  1642 PWs)   bands (ev):

   -75.8240 -71.3723 -42.0675 -41.7569 -41.7569 -37.5834 -37.4949 -37.4949
    -5.5709  -5.5458   6.7324   7.3231   7.3231   8.0866   8.8911   8.8911
     9.6528   9.9226   9.9226  12.1805  12.1805  13.9860  13.9860  15.8190
    17.1921  17.1921

     the Fermi energy is    14.2712 ev

!    total energy              =    -564.99268415 Ry
     estimated scf accuracy    <       0.00000060 Ry
     smearing contrib. (-TS)   =      -0.00029044 Ry
     internal energy E=F+TS    =    -564.99239371 Ry

     The total energy is F=E-TS. E is the sum of the following terms:
     one-electron contribution =    -276.48003930 Ry
     hartree contribution      =     162.62638699 Ry
     xc contribution           =     -73.34357910 Ry
     ewald contribution        =    -378.02415735 Ry
     Hubbard energy            =       0.22899505 Ry

     total magnetization       =    -0.00 Bohr mag/cell
     absolute magnetization    =     7.55 Bohr mag/cell

     convergence has been achieved in  14 iterations

     Writing all to output data dir ./data/FeO.save/
 
     init_run     :      1.13s CPU      3.24s WALL (       1 calls)
     electrons    :     26.53s CPU     27.60s WALL (       1 calls)

     Called by init_run:
     wfcinit      :      0.82s CPU      1.32s WALL (       1 calls)
     potinit      :      0.09s CPU      0.33s WALL (       1 calls)
     hinit0       :      0.14s CPU      1.19s WALL (       1 calls)

     Called by electrons:
     c_bands      :     20.33s CPU     21.01s WALL (      14 calls)
     sum_band     :      4.71s CPU      4.86s WALL (      14 calls)
     v_of_rho     :      0.78s CPU      0.90s WALL (      15 calls)
     newd         :      0.54s CPU      0.88s WALL (      15 calls)
     mix_rho      :      0.09s CPU      0.11s WALL (      14 calls)

     Called by c_bands:
     init_us_2    :      0.12s CPU      0.13s WALL (    1920 calls)
     init_us_2:cp :      0.12s CPU      0.12s WALL (    1920 calls)
     cegterg      :     19.59s CPU     20.15s WALL (     896 calls)

     Called by *egterg:
     cdiaghg      :      1.94s CPU      2.19s WALL (    3476 calls)
     h_psi        :     16.91s CPU     17.16s WALL (    3540 calls)
     s_psi        :      0.24s CPU      0.24s WALL (    3604 calls)
     g_psi        :      0.03s CPU      0.03s WALL (    2580 calls)

     Called by h_psi:
     h_psi:calbec :      0.47s CPU      0.48s WALL (    3540 calls)
     vloc_psi     :     15.87s CPU     16.10s WALL (    3540 calls)
     add_vuspsi   :      0.23s CPU      0.24s WALL (    3540 calls)
     vhpsi        :      0.31s CPU      0.32s WALL (    3540 calls)

     General routines
     calbec       :      1.02s CPU      1.05s WALL (    8936 calls)
     fft          :      0.60s CPU      1.52s WALL (     369 calls)
     ffts         :      0.03s CPU      0.05s WALL (      58 calls)
     fftw         :     18.02s CPU     18.28s WALL (  140890 calls)
     interpolate  :      0.08s CPU      0.12s WALL (      30 calls)
     davcio       :      0.00s CPU      0.51s WALL (      64 calls)
 
     Parallel routines

     Hubbard U routines
     new_ns       :      0.10s CPU      0.10s WALL (      14 calls)
     vhpsi        :      0.31s CPU      0.32s WALL (    3540 calls)
 
     PWSCF        :     30.64s CPU     36.67s WALL

 
   This run was terminated on:  16: 5:26   5Jun2026            

=------------------------------------------------------------------------------=
   JOB DONE.
=------------------------------------------------------------------------------=
