
     Program PWSCF v.7.1 starts on 11Jun2026 at  3:35:45 

     This program is part of the open-source Quantum ESPRESSO suite
     for quantum simulation of materials; please cite
         "P. Giannozzi et al., J. Phys.:Condens. Matter 21 395502 (2009);
         "P. Giannozzi et al., J. Phys.:Condens. Matter 29 465901 (2017);
         "P. Giannozzi et al., J. Chem. Phys. 152 154105 (2020);
          URL http://www.quantum-espresso.org", 
     in publications or presentations arising from this work. More details at
     http://www.quantum-espresso.org/quote

     Parallel version (MPI & OpenMP), running on       7 processor cores
     Number of MPI processes:                 7
     Threads/MPI process:                     1

     MPI processes distributed on     7 nodes
     223622 MiB available memory on the printing compute node when the environment starts
 
     Waiting for input...
     Reading input from standard input
Warning: card &CELL ignored
Warning: card / ignored
Warning: card &FCP ignored
Warning: card / ignored
Warning: card &RISM ignored
Warning: card / ignored

     Current dimensions of program PWSCF are:
     Max number of different atomic species (ntypx) = 10
     Max number of k-points (npk) =  40000
     Max angular momentum in pseudopotentials (lmaxx) =  4
     Message from routine setup:
     using ibrav=0 with symmetry is DISCOURAGED, use correct ibrav instead
 
     R & G space division:  proc/nbgrp/npool/nimage =       7
     Subspace diagonalization in iterative solution of the eigenvalue problem:
     a serial algorithm will be used

 
     Parallelization info
     --------------------
     sticks:   dense  smooth     PW     G-vecs:    dense   smooth      PW
     Min          85      34     11                 4951     1246     236
     Max          85      35     13                 4959     1253     241
     Sum         595     241     85                34677     8743    1663
 
     Using Slab Decomposition
 


     bravais-lattice index     =            0
     lattice parameter (alat)  =       4.6633  a.u.
     unit-cell volume          =     256.2427 (a.u.)^3
     number of atoms/cell      =            4
     number of atomic types    =            1
     number of electrons       =        16.00
     number of Kohn-Sham states=           12
     kinetic-energy cutoff     =      40.0000  Ry
     charge density cutoff     =     400.0000  Ry
     scf convergence threshold =      1.0E-08
     mixing beta               =       0.3000
     number of iterations used =            8  plain     mixing
     Exchange-correlation= SLA  PW   PBE  PBE
                           (   1   4   3   4   0   0   0)

     celldm(1)=   4.663315  celldm(2)=   0.000000  celldm(3)=   0.000000
     celldm(4)=   0.000000  celldm(5)=   0.000000  celldm(6)=   0.000000

     crystal axes: (cart. coord. in units of alat)
               a(1) = (   1.000000   0.000000   0.000000 )  
               a(2) = (  -0.500000   0.866025   0.000000 )  
               a(3) = (   0.000000   0.000000   2.917673 )  

     reciprocal axes: (cart. coord. in units 2 pi/alat)
               b(1) = (  1.000000  0.577350  0.000000 )  
               b(2) = (  0.000000  1.154701  0.000000 )  
               b(3) = (  0.000000  0.000000  0.342739 )  


     PseudoPot. # 1 for C  read from file:
     /home/k0750/k075000/PSPOT/c_pbe_v1.2.uspp.F.UPF
     MD5 check sum: d1aef80898a10debaa0f26306b886e00
     Pseudo is Ultrasoft + core correction, Zval =  4.0
     Generated by new atomic code, or converted to UPF format
     Using radial grid of  721 points,  4 beta functions with: 
                l(1) =   0
                l(2) =   0
                l(3) =   1
                l(4) =   1
     Q(r) pseudized with  8 coefficients,  rinner =    1.100   1.100   1.100


     atomic species   valence    mass     pseudopotential
        C              4.00    12.01100     C ( 1.00)

      8 Sym. Ops., with inversion, found ( 4 have fractional translation)



   Cartesian axes

     site n.     atom                  positions (alat units)
         1           C   tau(   1) = (   0.0000000   0.0000000   2.1882547  )
         2           C   tau(   2) = (   0.0000000   0.0000000   0.7294182  )
         3           C   tau(   3) = (  -0.0000050   0.5773532   2.1882547  )
         4           C   tau(   4) = (   0.5000050   0.2886722   0.7294182  )

     number of k points=   215  Marzari-Vanderbilt smearing, width (Ry)=  0.0100

     Number of k-points >= 100: set verbosity='high' to print them.

     Dense  grid:    34677 G-vectors     FFT dimensions: (  30,  30,  90)

     Smooth grid:     8743 G-vectors     FFT dimensions: (  20,  20,  60)

     Estimated max dynamical RAM per process >      13.59 MB

     Estimated total dynamical RAM >      95.15 MB

     Initial potential from superposition of free atoms

     starting charge      15.9998, renormalised to      16.0000
     Starting wfcs are   16 randomized atomic wfcs

     total cpu time spent up to now is        0.6 secs

     Self-consistent Calculation

     iteration #  1     ecut=    40.00 Ry     beta= 0.30
     Davidson diagonalization with overlap
     ethr =  1.00E-02,  avg # of iterations =  2.8

     total cpu time spent up to now is        1.9 secs

     total energy              =     -46.00606106 Ry
     estimated scf accuracy    <       0.36866077 Ry

     iteration #  2     ecut=    40.00 Ry     beta= 0.30
     Davidson diagonalization with overlap
     ethr =  2.30E-03,  avg # of iterations =  1.2

     total cpu time spent up to now is        2.7 secs

     total energy              =     -45.93745063 Ry
     estimated scf accuracy    <       0.13373172 Ry

     iteration #  3     ecut=    40.00 Ry     beta= 0.30
     Davidson diagonalization with overlap
     ethr =  8.36E-04,  avg # of iterations =  3.9

     total cpu time spent up to now is        4.0 secs

     total energy              =     -45.96025976 Ry
     estimated scf accuracy    <       0.00284402 Ry

     iteration #  4     ecut=    40.00 Ry     beta= 0.30
     Davidson diagonalization with overlap
     c_bands:  1 eigenvalues not converged
     ethr =  1.78E-05,  avg # of iterations =  5.4

     total cpu time spent up to now is        5.4 secs

     total energy              =     -45.95891405 Ry
     estimated scf accuracy    <       0.00535260 Ry

     iteration #  5     ecut=    40.00 Ry     beta= 0.30
     Davidson diagonalization with overlap
     ethr =  1.78E-05,  avg # of iterations =  3.1

     total cpu time spent up to now is        6.6 secs

     total energy              =     -45.95975987 Ry
     estimated scf accuracy    <       0.00001022 Ry

     iteration #  6     ecut=    40.00 Ry     beta= 0.30
     Davidson diagonalization with overlap
     ethr =  6.39E-08,  avg # of iterations =  3.9

     total cpu time spent up to now is        7.8 secs

     total energy              =     -45.95976323 Ry
     estimated scf accuracy    <       0.00000175 Ry

     iteration #  7     ecut=    40.00 Ry     beta= 0.30
     Davidson diagonalization with overlap
     ethr =  1.09E-08,  avg # of iterations =  2.0

     total cpu time spent up to now is        8.8 secs

     total energy              =     -45.95976357 Ry
     estimated scf accuracy    <       0.00000022 Ry

     iteration #  8     ecut=    40.00 Ry     beta= 0.30
     Davidson diagonalization with overlap
     ethr =  1.39E-09,  avg # of iterations =  1.9

     total cpu time spent up to now is        9.7 secs

     total energy              =     -45.95976370 Ry
     estimated scf accuracy    <       0.00000003 Ry

     iteration #  9     ecut=    40.00 Ry     beta= 0.30
     Davidson diagonalization with overlap
     ethr =  2.02E-10,  avg # of iterations =  1.0

     total cpu time spent up to now is       10.5 secs

     total energy              =     -45.95976375 Ry
     estimated scf accuracy    <       0.00000001 Ry

     iteration # 10     ecut=    40.00 Ry     beta= 0.30
     Davidson diagonalization with overlap
     ethr =  9.26E-11,  avg # of iterations =  2.0

     total cpu time spent up to now is       11.5 secs

     End of self-consistent calculation

     Number of k-points >= 100: set verbosity='high' to print the bands.

     the Fermi energy is     6.2345 ev

!    total energy              =     -45.95976380 Ry
     estimated scf accuracy    <          6.7E-11 Ry
     smearing contrib. (-TS)   =      -0.00008967 Ry
     internal energy E=F+TS    =     -45.95967414 Ry

     The total energy is F=E-TS. E is the sum of the following terms:
     one-electron contribution =     -16.68216818 Ry
     hartree contribution      =      15.82847972 Ry
     xc contribution           =     -14.53313563 Ry
     ewald contribution        =     -30.57285005 Ry

     convergence has been achieved in  10 iterations

     Forces acting on atoms (cartesian axes, Ry/au):

     atom    1 type  1   force =    -0.00002385    0.00001377    0.00000000
     atom    2 type  1   force =     0.00002385   -0.00001377    0.00000000
     atom    3 type  1   force =     0.00002384   -0.00001376    0.00000000
     atom    4 type  1   force =    -0.00002384    0.00001376    0.00000000

     Total force =     0.000055     Total SCF correction =     0.000000


     Computing stress (Cartesian axis) and pressure

          total   stress  (Ry/bohr**3)                   (kbar)     P=       -3.25
  -0.00007079  -0.00000005   0.00000000          -10.41       -0.01        0.00
  -0.00000005  -0.00007085   0.00000000           -0.01      -10.42        0.00
   0.00000000   0.00000000   0.00007540            0.00        0.00       11.09


     Writing all to output data dir ./tmp/graphite_d_3p60000.save/
 
     init_run     :      0.44s CPU      0.53s WALL (       1 calls)
     electrons    :     10.28s CPU     10.99s WALL (       1 calls)
     forces       :      0.09s CPU      0.09s WALL (       1 calls)
     stress       :      0.18s CPU      0.18s WALL (       1 calls)

     Called by init_run:
     wfcinit      :      0.38s CPU      0.41s WALL (       1 calls)
     potinit      :      0.01s CPU      0.03s WALL (       1 calls)
     hinit0       :      0.03s CPU      0.06s WALL (       1 calls)

     Called by electrons:
     c_bands      :      8.81s CPU      9.38s WALL (      10 calls)
     sum_band     :      1.39s CPU      1.46s WALL (      10 calls)
     v_of_rho     :      0.04s CPU      0.09s WALL (      11 calls)
     newd         :      0.02s CPU      0.03s WALL (      11 calls)
     mix_rho      :      0.01s CPU      0.01s WALL (      10 calls)

     Called by c_bands:
     init_us_2    :      0.10s CPU      0.11s WALL (    4945 calls)
     init_us_2:cp :      0.10s CPU      0.10s WALL (    4945 calls)
     cegterg      :      8.37s CPU      8.73s WALL (    2150 calls)

     Called by *egterg:
     cdiaghg      :      0.99s CPU      1.03s WALL (    7998 calls)
     h_psi        :      6.53s CPU      6.84s WALL (    8213 calls)
     s_psi        :      0.12s CPU      0.13s WALL (    8213 calls)
     g_psi        :      0.03s CPU      0.03s WALL (    5848 calls)

     Called by h_psi:
     h_psi:calbec :      0.39s CPU      0.41s WALL (    8213 calls)
     vloc_psi     :      5.97s CPU      6.25s WALL (    8213 calls)
     add_vuspsi   :      0.13s CPU      0.14s WALL (    8213 calls)

     General routines
     calbec       :      0.57s CPU      0.59s WALL (   11438 calls)
     fft          :      0.05s CPU      0.13s WALL (     166 calls)
     ffts         :      0.00s CPU      0.01s WALL (      21 calls)
     fftw         :      6.60s CPU      6.91s WALL (  167854 calls)
     interpolate  :      0.00s CPU      0.01s WALL (      11 calls)
 
     Parallel routines
 
     PWSCF        :     11.52s CPU     12.94s WALL

 
   This run was terminated on:   3:35:58  11Jun2026            

=------------------------------------------------------------------------------=
   JOB DONE.
=------------------------------------------------------------------------------=
