
     Program PWSCF v.7.1 starts on 11Jun2026 at  3:50:14 

     This program is part of the open-source Quantum ESPRESSO suite
     for quantum simulation of materials; please cite
         "P. Giannozzi et al., J. Phys.:Condens. Matter 21 395502 (2009);
         "P. Giannozzi et al., J. Phys.:Condens. Matter 29 465901 (2017);
         "P. Giannozzi et al., J. Chem. Phys. 152 154105 (2020);
          URL http://www.quantum-espresso.org", 
     in publications or presentations arising from this work. More details at
     http://www.quantum-espresso.org/quote

     Parallel version (MPI & OpenMP), running on       7 processor cores
     Number of MPI processes:                 7
     Threads/MPI process:                     1

     MPI processes distributed on     7 nodes
     223299 MiB available memory on the printing compute node when the environment starts
 
     Waiting for input...
     Reading input from standard input
Warning: card &CELL ignored
Warning: card / ignored
Warning: card &FCP ignored
Warning: card / ignored
Warning: card &RISM ignored
Warning: card / ignored

     Current dimensions of program PWSCF are:
     Max number of different atomic species (ntypx) = 10
     Max number of k-points (npk) =  40000
     Max angular momentum in pseudopotentials (lmaxx) =  4

     IMPORTANT: XC functional enforced from input :
     Exchange-correlation= VDW-DF2-B86R
                           (   1   4  26   0   2   0   0)
     Any further DFT definition will be discarded
     Please, verify this is what you really want

     Message from routine setup:
     using ibrav=0 with symmetry is DISCOURAGED, use correct ibrav instead
 
     R & G space division:  proc/nbgrp/npool/nimage =       7
     Subspace diagonalization in iterative solution of the eigenvalue problem:
     a serial algorithm will be used

 
     Parallelization info
     --------------------
     sticks:   dense  smooth     PW     G-vecs:    dense   smooth      PW
     Min          85      34     12                 6859     1738     326
     Max          85      35     13                 6871     1751     333
     Sum         595     241     85                48043    12209    2299
 
     Using Slab Decomposition
 


     bravais-lattice index     =            0
     lattice parameter (alat)  =       4.6633  a.u.
     unit-cell volume          =     355.8926 (a.u.)^3
     number of atoms/cell      =            4
     number of atomic types    =            1
     number of electrons       =        16.00
     number of Kohn-Sham states=           12
     kinetic-energy cutoff     =      40.0000  Ry
     charge density cutoff     =     400.0000  Ry
     scf convergence threshold =      1.0E-08
     mixing beta               =       0.3000
     number of iterations used =            8  plain     mixing
     Exchange-correlation= VDW-DF2-B86R
                           (   1   4  26   0   2   0   0)

     celldm(1)=   4.663315  celldm(2)=   0.000000  celldm(3)=   0.000000
     celldm(4)=   0.000000  celldm(5)=   0.000000  celldm(6)=   0.000000

     crystal axes: (cart. coord. in units of alat)
               a(1) = (   1.000000   0.000000   0.000000 )  
               a(2) = (  -0.500000   0.866025   0.000000 )  
               a(3) = (   0.000000   0.000000   4.052324 )  

     reciprocal axes: (cart. coord. in units 2 pi/alat)
               b(1) = (  1.000000  0.577350  0.000000 )  
               b(2) = (  0.000000  1.154701  0.000000 )  
               b(3) = (  0.000000  0.000000  0.246772 )  


     PseudoPot. # 1 for C  read from file:
     /home/k0750/k075000/PSPOT/c_pbe_v1.2.uspp.F.UPF
     MD5 check sum: d1aef80898a10debaa0f26306b886e00
     Pseudo is Ultrasoft + core correction, Zval =  4.0
     Generated by new atomic code, or converted to UPF format
     Using radial grid of  721 points,  4 beta functions with: 
                l(1) =   0
                l(2) =   0
                l(3) =   1
                l(4) =   1
     Q(r) pseudized with  8 coefficients,  rinner =    1.100   1.100   1.100


     atomic species   valence    mass     pseudopotential
        C              4.00    12.01100     C ( 1.00)

      8 Sym. Ops., with inversion, found ( 4 have fractional translation)



   Cartesian axes

     site n.     atom                  positions (alat units)
         1           C   tau(   1) = (   0.0000000   0.0000000   3.0392427  )
         2           C   tau(   2) = (   0.0000000   0.0000000   1.0130809  )
         3           C   tau(   3) = (  -0.0000050   0.5773532   3.0392427  )
         4           C   tau(   4) = (   0.5000050   0.2886722   1.0130809  )

     number of k points=   215  Marzari-Vanderbilt smearing, width (Ry)=  0.0100

     Number of k-points >= 100: set verbosity='high' to print them.

     Dense  grid:    48043 G-vectors     FFT dimensions: (  30,  30, 128)

     Smooth grid:    12209 G-vectors     FFT dimensions: (  20,  20,  80)

     Estimated max dynamical RAM per process >      18.74 MB

     Estimated total dynamical RAM >     131.18 MB

     Initial potential from superposition of free atoms

     starting charge      15.9998, renormalised to      16.0000


     %%%%%%%%%%%%%%%%%%%%%%%%%%%%%%%%%%%%%%%%%%%%%%%%%%%%%%%%%%%%%%%%%%%%%%%%
     %                                                                      %
     % You are using vdW-DF, which was implemented by the Thonhauser group. %
     % Please cite the following two papers that made this development      %
     % possible and the two reviews that describe the various versions:     %
     %                                                                      %
     %   T. Thonhauser et al., PRL 115, 136402 (2015).                      %
     %   T. Thonhauser et al., PRB 76, 125112 (2007).                       %
     %   K. Berland et al., Rep. Prog. Phys. 78, 066501 (2015).             %
     %   D.C. Langreth et al., J. Phys.: Condens. Matter 21, 084203 (2009). %
     %                                                                      %
     % If you are calculating stress with vdW-DF, please also cite:         %
     %                                                                      %
     %   R. Sabatini et al., J. Phys.: Condens. Matter 24, 424209 (2012).   %
     %                                                                      %
     %%%%%%%%%%%%%%%%%%%%%%%%%%%%%%%%%%%%%%%%%%%%%%%%%%%%%%%%%%%%%%%%%%%%%%%%

     %%%%%%%%%%%%%%%%%%%%%%%%%%%%%%%%%%%%%%%%%%%%%%%%%%%%%%%%%%%%%%%%%%%%%%%%
     %                                                                      %
     %  vdW-DF NEWS:                                                        %
     %                                                                      %
     %  * vdW-DF3 is now available. DOI: 10.1021/acs.jctc.0c00471           %
     %    use with input_dft = 'vdW-DF3-opt1' or 'vdW-DF3-opt2'             %
     %                                                                      %
     %  * Unscreened and range-separated vdW-DF hybrid functionals          %
     %    DOI: 10.1063/1.4986522 and 10.1088/1361-648X/ac2ad2               %
     %    use with input_dft = 'vdW-DF-cx0' (etc) and 'vdW-DF-ahcx'         %
     %                                                                      %
     %%%%%%%%%%%%%%%%%%%%%%%%%%%%%%%%%%%%%%%%%%%%%%%%%%%%%%%%%%%%%%%%%%%%%%%%


     Starting wfcs are   16 randomized atomic wfcs

     total cpu time spent up to now is       13.7 secs

     Self-consistent Calculation

     iteration #  1     ecut=    40.00 Ry     beta= 0.30
     Davidson diagonalization with overlap
     ethr =  1.00E-02,  avg # of iterations =  3.0

     total cpu time spent up to now is       15.5 secs

     total energy              =     -46.03602246 Ry
     estimated scf accuracy    <       0.38409693 Ry

     iteration #  2     ecut=    40.00 Ry     beta= 0.30
     Davidson diagonalization with overlap
     ethr =  2.40E-03,  avg # of iterations =  1.8

     total cpu time spent up to now is       16.7 secs

     total energy              =     -45.96509498 Ry
     estimated scf accuracy    <       0.13713190 Ry

     iteration #  3     ecut=    40.00 Ry     beta= 0.30
     Davidson diagonalization with overlap
     ethr =  8.57E-04,  avg # of iterations =  4.2

     total cpu time spent up to now is       18.4 secs

     total energy              =     -45.99168519 Ry
     estimated scf accuracy    <       0.00403936 Ry

     iteration #  4     ecut=    40.00 Ry     beta= 0.30
     Davidson diagonalization with overlap
     ethr =  2.52E-05,  avg # of iterations =  5.5

     total cpu time spent up to now is       20.1 secs

     total energy              =     -45.98885422 Ry
     estimated scf accuracy    <       0.01040508 Ry

     iteration #  5     ecut=    40.00 Ry     beta= 0.30
     Davidson diagonalization with overlap
     ethr =  2.52E-05,  avg # of iterations =  3.1

     total cpu time spent up to now is       21.7 secs

     total energy              =     -45.99058754 Ry
     estimated scf accuracy    <       0.00000218 Ry

     iteration #  6     ecut=    40.00 Ry     beta= 0.30
     Davidson diagonalization with overlap
     ethr =  1.36E-08,  avg # of iterations =  4.7

     total cpu time spent up to now is       23.5 secs

     total energy              =     -45.99059292 Ry
     estimated scf accuracy    <       0.00000108 Ry

     iteration #  7     ecut=    40.00 Ry     beta= 0.30
     Davidson diagonalization with overlap
     ethr =  6.74E-09,  avg # of iterations =  2.0

     total cpu time spent up to now is       24.8 secs

     total energy              =     -45.99059336 Ry
     estimated scf accuracy    <       0.00000035 Ry

     iteration #  8     ecut=    40.00 Ry     beta= 0.30
     Davidson diagonalization with overlap
     ethr =  2.18E-09,  avg # of iterations =  1.0

     total cpu time spent up to now is       25.8 secs

     total energy              =     -45.99059351 Ry
     estimated scf accuracy    <       0.00000009 Ry

     iteration #  9     ecut=    40.00 Ry     beta= 0.30
     Davidson diagonalization with overlap
     ethr =  5.68E-10,  avg # of iterations =  1.0

     total cpu time spent up to now is       26.8 secs

     total energy              =     -45.99059357 Ry
     estimated scf accuracy    <       0.00000004 Ry

     iteration # 10     ecut=    40.00 Ry     beta= 0.30
     Davidson diagonalization with overlap
     ethr =  2.57E-10,  avg # of iterations =  2.0

     total cpu time spent up to now is       28.0 secs

     End of self-consistent calculation

     Number of k-points >= 100: set verbosity='high' to print the bands.

     the Fermi energy is     3.2370 ev

!    total energy              =     -45.99059365 Ry
     estimated scf accuracy    <          6.1E-09 Ry
     smearing contrib. (-TS)   =      -0.00017417 Ry
     internal energy E=F+TS    =     -45.99041947 Ry

     The total energy is F=E-TS. E is the sum of the following terms:
     one-electron contribution =     -50.80242371 Ry
     hartree contribution      =      31.09974685 Ry
     xc contribution           =     -14.54570076 Ry
     ewald contribution        =     -11.74204185 Ry

     convergence has been achieved in  10 iterations

     Forces acting on atoms (cartesian axes, Ry/au):

     atom    1 type  1   force =    -0.00002033    0.00001173    0.00000000
     atom    2 type  1   force =     0.00002033   -0.00001173    0.00000000
     atom    3 type  1   force =     0.00002031   -0.00001172    0.00000000
     atom    4 type  1   force =    -0.00002031    0.00001172    0.00000000

     Total force =     0.000047     Total SCF correction =     0.000000


     Computing stress (Cartesian axis) and pressure

          total   stress  (Ry/bohr**3)                   (kbar)     P=       -9.09
  -0.00005169  -0.00000000   0.00000000           -7.60       -0.00        0.00
  -0.00000000  -0.00005169   0.00000000           -0.00       -7.60        0.00
   0.00000000   0.00000000  -0.00008209            0.00        0.00      -12.08


     Writing all to output data dir ./tmp/graphite_d_5p00000.save/
 
     init_run     :     13.39s CPU     13.64s WALL (       1 calls)
     electrons    :     13.24s CPU     14.27s WALL (       1 calls)
     forces       :      0.13s CPU      0.14s WALL (       1 calls)
     stress       :      0.31s CPU      0.38s WALL (       1 calls)

     Called by init_run:
     wfcinit      :      0.59s CPU      0.68s WALL (       1 calls)
     potinit      :     12.72s CPU     12.84s WALL (       1 calls)
     hinit0       :      0.04s CPU      0.08s WALL (       1 calls)

     Called by electrons:
     c_bands      :     11.08s CPU     11.67s WALL (      10 calls)
     sum_band     :      1.76s CPU      1.84s WALL (      10 calls)
     v_of_rho     :     13.04s CPU     13.50s WALL (      11 calls)
     newd         :      0.04s CPU      0.04s WALL (      11 calls)
     mix_rho      :      0.01s CPU      0.02s WALL (      10 calls)
     vdW_kernel   :     12.66s CPU     12.69s WALL (       1 calls)

     Called by c_bands:
     init_us_2    :      0.13s CPU      0.14s WALL (    4945 calls)
     init_us_2:cp :      0.13s CPU      0.13s WALL (    4945 calls)
     cegterg      :     10.54s CPU     10.89s WALL (    2150 calls)

     Called by *egterg:
     cdiaghg      :      1.03s CPU      1.06s WALL (    8262 calls)
     h_psi        :      8.60s CPU      8.94s WALL (    8477 calls)
     s_psi        :      0.16s CPU      0.16s WALL (    8477 calls)
     g_psi        :      0.04s CPU      0.04s WALL (    6112 calls)

     Called by h_psi:
     h_psi:calbec :      0.46s CPU      0.47s WALL (    8477 calls)
     vloc_psi     :      7.93s CPU      8.25s WALL (    8477 calls)
     add_vuspsi   :      0.17s CPU      0.17s WALL (    8477 calls)

     General routines
     calbec       :      0.66s CPU      0.68s WALL (   11702 calls)
     fft          :      0.29s CPU      0.83s WALL (     860 calls)
     ffts         :      0.00s CPU      0.01s WALL (      21 calls)
     fftw         :      8.75s CPU      9.09s WALL (  171978 calls)
     interpolate  :      0.00s CPU      0.01s WALL (      11 calls)
 
     Parallel routines
 
     PWSCF        :     27.66s CPU     29.67s WALL

 
   This run was terminated on:   3:50:44  11Jun2026            

=------------------------------------------------------------------------------=
   JOB DONE.
=------------------------------------------------------------------------------=
