
     Program PWSCF v.7.1 starts on 11Jun2026 at  3:44:13 

     This program is part of the open-source Quantum ESPRESSO suite
     for quantum simulation of materials; please cite
         "P. Giannozzi et al., J. Phys.:Condens. Matter 21 395502 (2009);
         "P. Giannozzi et al., J. Phys.:Condens. Matter 29 465901 (2017);
         "P. Giannozzi et al., J. Chem. Phys. 152 154105 (2020);
          URL http://www.quantum-espresso.org", 
     in publications or presentations arising from this work. More details at
     http://www.quantum-espresso.org/quote

     Parallel version (MPI & OpenMP), running on       7 processor cores
     Number of MPI processes:                 7
     Threads/MPI process:                     1

     MPI processes distributed on     7 nodes
     223999 MiB available memory on the printing compute node when the environment starts
 
     Waiting for input...
     Reading input from standard input
Warning: card &CELL ignored
Warning: card / ignored
Warning: card &FCP ignored
Warning: card / ignored
Warning: card &RISM ignored
Warning: card / ignored

     Current dimensions of program PWSCF are:
     Max number of different atomic species (ntypx) = 10
     Max number of k-points (npk) =  40000
     Max angular momentum in pseudopotentials (lmaxx) =  4

     IMPORTANT: XC functional enforced from input :
     Exchange-correlation= VDW-DF2-B86R
                           (   1   4  26   0   2   0   0)
     Any further DFT definition will be discarded
     Please, verify this is what you really want

     Message from routine setup:
     using ibrav=0 with symmetry is DISCOURAGED, use correct ibrav instead
 
     R & G space division:  proc/nbgrp/npool/nimage =       7
     Subspace diagonalization in iterative solution of the eigenvalue problem:
     a serial algorithm will be used

 
     Parallelization info
     --------------------
     sticks:   dense  smooth     PW     G-vecs:    dense   smooth      PW
     Min          85      34     12                20583     5216     978
     Max          85      35     13                20621     5251     999
     Sum         595     241     85               144163    36613    6911
 
     Using Slab Decomposition
 


     bravais-lattice index     =            0
     lattice parameter (alat)  =       4.6633  a.u.
     unit-cell volume          =    1067.6779 (a.u.)^3
     number of atoms/cell      =            2
     number of atomic types    =            1
     number of electrons       =         8.00
     number of Kohn-Sham states=            8
     kinetic-energy cutoff     =      40.0000  Ry
     charge density cutoff     =     400.0000  Ry
     scf convergence threshold =      1.0E-08
     mixing beta               =       0.3000
     number of iterations used =            8  plain     mixing
     Exchange-correlation= VDW-DF2-B86R
                           (   1   4  26   0   2   0   0)

     celldm(1)=   4.663315  celldm(2)=   0.000000  celldm(3)=   0.000000
     celldm(4)=   0.000000  celldm(5)=   0.000000  celldm(6)=   0.000000

     crystal axes: (cart. coord. in units of alat)
               a(1) = (   1.000000   0.000000   0.000000 )  
               a(2) = (  -0.500000   0.866025   0.000000 )  
               a(3) = (   0.000000   0.000000  12.156971 )  

     reciprocal axes: (cart. coord. in units 2 pi/alat)
               b(1) = (  1.000000  0.577350  0.000000 )  
               b(2) = (  0.000000  1.154701  0.000000 )  
               b(3) = (  0.000000  0.000000  0.082257 )  


     PseudoPot. # 1 for C  read from file:
     /home/k0750/k075000/PSPOT/c_pbe_v1.2.uspp.F.UPF
     MD5 check sum: d1aef80898a10debaa0f26306b886e00
     Pseudo is Ultrasoft + core correction, Zval =  4.0
     Generated by new atomic code, or converted to UPF format
     Using radial grid of  721 points,  4 beta functions with: 
                l(1) =   0
                l(2) =   0
                l(3) =   1
                l(4) =   1
     Q(r) pseudized with  8 coefficients,  rinner =    1.100   1.100   1.100


     atomic species   valence    mass     pseudopotential
        C              4.00    12.01100     C ( 1.00)

     12 Sym. Ops. (no inversion) found



   Cartesian axes

     site n.     atom                  positions (alat units)
         1           C   tau(   1) = (   0.0000000   0.0000000   6.0784854  )
         2           C   tau(   2) = (  -0.0000050   0.5773532   6.0784854  )

     number of k points=    19  Marzari-Vanderbilt smearing, width (Ry)=  0.0100
                       cart. coord. in units 2pi/alat
        k(    1) = (   0.0000000   0.0000000   0.0000000), wk =   0.0138889
        k(    2) = (   0.0000000   0.0962250   0.0000000), wk =   0.0833333
        k(    3) = (   0.0000000   0.1924501   0.0000000), wk =   0.0833333
        k(    4) = (   0.0000000   0.2886751   0.0000000), wk =   0.0833333
        k(    5) = (   0.0000000   0.3849002   0.0000000), wk =   0.0833333
        k(    6) = (   0.0000000   0.4811252   0.0000000), wk =   0.0833333
        k(    7) = (   0.0000000  -0.5773503   0.0000000), wk =   0.0416667
        k(    8) = (   0.0833333   0.1443376   0.0000000), wk =   0.0833333
        k(    9) = (   0.0833333   0.2405626   0.0000000), wk =   0.1666667
        k(   10) = (   0.0833333   0.3367877   0.0000000), wk =   0.1666667
        k(   11) = (   0.0833333   0.4330127   0.0000000), wk =   0.1666667
        k(   12) = (   0.0833333   0.5292377   0.0000000), wk =   0.1666667
        k(   13) = (   0.1666667   0.2886751   0.0000000), wk =   0.0833333
        k(   14) = (   0.1666667   0.3849002   0.0000000), wk =   0.1666667
        k(   15) = (   0.1666667   0.4811252   0.0000000), wk =   0.1666667
        k(   16) = (   0.1666667   0.5773503   0.0000000), wk =   0.0833333
        k(   17) = (   0.2500000   0.4330127   0.0000000), wk =   0.0833333
        k(   18) = (   0.2500000   0.5292377   0.0000000), wk =   0.1666667
        k(   19) = (   0.3333333   0.5773503   0.0000000), wk =   0.0277778

     Dense  grid:   144163 G-vectors     FFT dimensions: (  30,  30, 375)

     Smooth grid:    36613 G-vectors     FFT dimensions: (  20,  20, 240)

     Estimated max dynamical RAM per process >      29.69 MB

     Estimated total dynamical RAM >     207.84 MB

     Initial potential from superposition of free atoms

     starting charge       7.9999, renormalised to       8.0000

     negative rho (up, down):  2.654E-05 0.000E+00


     %%%%%%%%%%%%%%%%%%%%%%%%%%%%%%%%%%%%%%%%%%%%%%%%%%%%%%%%%%%%%%%%%%%%%%%%
     %                                                                      %
     % You are using vdW-DF, which was implemented by the Thonhauser group. %
     % Please cite the following two papers that made this development      %
     % possible and the two reviews that describe the various versions:     %
     %                                                                      %
     %   T. Thonhauser et al., PRL 115, 136402 (2015).                      %
     %   T. Thonhauser et al., PRB 76, 125112 (2007).                       %
     %   K. Berland et al., Rep. Prog. Phys. 78, 066501 (2015).             %
     %   D.C. Langreth et al., J. Phys.: Condens. Matter 21, 084203 (2009). %
     %                                                                      %
     % If you are calculating stress with vdW-DF, please also cite:         %
     %                                                                      %
     %   R. Sabatini et al., J. Phys.: Condens. Matter 24, 424209 (2012).   %
     %                                                                      %
     %%%%%%%%%%%%%%%%%%%%%%%%%%%%%%%%%%%%%%%%%%%%%%%%%%%%%%%%%%%%%%%%%%%%%%%%

     %%%%%%%%%%%%%%%%%%%%%%%%%%%%%%%%%%%%%%%%%%%%%%%%%%%%%%%%%%%%%%%%%%%%%%%%
     %                                                                      %
     %  vdW-DF NEWS:                                                        %
     %                                                                      %
     %  * vdW-DF3 is now available. DOI: 10.1021/acs.jctc.0c00471           %
     %    use with input_dft = 'vdW-DF3-opt1' or 'vdW-DF3-opt2'             %
     %                                                                      %
     %  * Unscreened and range-separated vdW-DF hybrid functionals          %
     %    DOI: 10.1063/1.4986522 and 10.1088/1361-648X/ac2ad2               %
     %    use with input_dft = 'vdW-DF-cx0' (etc) and 'vdW-DF-ahcx'         %
     %                                                                      %
     %%%%%%%%%%%%%%%%%%%%%%%%%%%%%%%%%%%%%%%%%%%%%%%%%%%%%%%%%%%%%%%%%%%%%%%%


     Starting wfcs are    8 randomized atomic wfcs

     total cpu time spent up to now is       13.8 secs

     Self-consistent Calculation

     iteration #  1     ecut=    40.00 Ry     beta= 0.30
     Davidson diagonalization with overlap
     ethr =  1.00E-02,  avg # of iterations =  6.2

     negative rho (up, down):  6.579E-05 0.000E+00

     total cpu time spent up to now is       14.3 secs

     total energy              =     -23.01520490 Ry
     estimated scf accuracy    <       0.19659824 Ry

     iteration #  2     ecut=    40.00 Ry     beta= 0.30
     Davidson diagonalization with overlap
     ethr =  2.46E-03,  avg # of iterations =  1.7

     negative rho (up, down):  2.322E-04 0.000E+00

     total cpu time spent up to now is       14.7 secs

     total energy              =     -22.98074915 Ry
     estimated scf accuracy    <       0.06823167 Ry

     iteration #  3     ecut=    40.00 Ry     beta= 0.30
     Davidson diagonalization with overlap
     ethr =  8.53E-04,  avg # of iterations =  6.7

     negative rho (up, down):  2.443E-04 0.000E+00

     total cpu time spent up to now is       15.2 secs

     total energy              =     -22.99358608 Ry
     estimated scf accuracy    <       0.00175592 Ry

     iteration #  4     ecut=    40.00 Ry     beta= 0.30
     Davidson diagonalization with overlap
     ethr =  2.19E-05,  avg # of iterations = 10.5

     negative rho (up, down):  2.676E-04 0.000E+00

     total cpu time spent up to now is       15.8 secs

     total energy              =     -22.99241682 Ry
     estimated scf accuracy    <       0.00432645 Ry

     iteration #  5     ecut=    40.00 Ry     beta= 0.30
     Davidson diagonalization with overlap
     ethr =  2.19E-05,  avg # of iterations =  2.5

     negative rho (up, down):  2.721E-04 0.000E+00

     total cpu time spent up to now is       16.3 secs

     total energy              =     -22.99305576 Ry
     estimated scf accuracy    <       0.00001631 Ry

     iteration #  6     ecut=    40.00 Ry     beta= 0.30
     Davidson diagonalization with overlap
     c_bands:  1 eigenvalues not converged
     ethr =  2.04E-07,  avg # of iterations =  6.4

     negative rho (up, down):  2.813E-04 0.000E+00

     total cpu time spent up to now is       16.8 secs

     total energy              =     -22.99306066 Ry
     estimated scf accuracy    <       0.00000094 Ry

     iteration #  7     ecut=    40.00 Ry     beta= 0.30
     Davidson diagonalization with overlap
     ethr =  1.17E-08,  avg # of iterations =  3.1

     negative rho (up, down):  2.882E-04 0.000E+00

     total cpu time spent up to now is       17.3 secs

     total energy              =     -22.99306113 Ry
     estimated scf accuracy    <       0.00000004 Ry

     iteration #  8     ecut=    40.00 Ry     beta= 0.30
     Davidson diagonalization with overlap
     ethr =  4.63E-10,  avg # of iterations =  2.5

     negative rho (up, down):  2.942E-04 0.000E+00

     total cpu time spent up to now is       17.7 secs

     total energy              =     -22.99306100 Ry
     estimated scf accuracy    <       0.00000008 Ry

     iteration #  9     ecut=    40.00 Ry     beta= 0.30
     Davidson diagonalization with overlap
     ethr =  4.63E-10,  avg # of iterations =  1.0

     negative rho (up, down):  2.989E-04 0.000E+00

     total cpu time spent up to now is       18.2 secs

     total energy              =     -22.99306098 Ry
     estimated scf accuracy    <       0.00000004 Ry

     iteration # 10     ecut=    40.00 Ry     beta= 0.30
     Davidson diagonalization with overlap
     ethr =  4.63E-10,  avg # of iterations =  2.0

     negative rho (up, down):  3.114E-04 0.000E+00

     total cpu time spent up to now is       18.6 secs

     End of self-consistent calculation

          k = 0.0000 0.0000 0.0000 (  4615 PWs)   bands (ev):

   -22.6078 -10.7442  -6.2422  -6.2416  -0.3058   0.4658   0.8934   1.1696

          k = 0.0000 0.0962 0.0000 (  4598 PWs)   bands (ev):

   -22.4446 -10.5484  -6.8851  -6.5763  -0.0830   0.6912   1.1219   1.3975

          k = 0.0000 0.1925 0.0000 (  4560 PWs)   bands (ev):

   -21.9567  -9.9660  -8.5068  -7.3604   0.5852   1.3663   1.8073   2.0797

          k = 0.0000 0.2887 0.0000 (  4562 PWs)   bands (ev):

   -21.1501 -10.5880  -9.0163  -8.2325   1.6972   2.4799   2.9495   3.2116

          k = 0.0000 0.3849 0.0000 (  4556 PWs)   bands (ev):

   -20.0370 -12.7756  -8.9603  -7.7491   1.7657   3.2457   4.0833   4.5471

          k = 0.0000 0.4811 0.0000 (  4574 PWs)   bands (ev):

   -18.6491 -14.8618  -9.4300  -6.3262  -0.3646   4.3328   5.2499   6.0786

          k = 0.0000-0.5774 0.0000 (  4564 PWs)   bands (ev):

   -17.3978 -16.3535  -9.5914  -5.4797  -1.4636   4.2567   7.5636   7.6983

          k = 0.0833 0.1443 0.0000 (  4585 PWs)   bands (ev):

   -22.1191 -10.1592  -7.9092  -7.2456   0.3626   1.1416   1.5788   1.8527

          k = 0.0833 0.2406 0.0000 (  4571 PWs)   bands (ev):

   -21.4718  -9.6044  -9.3920  -8.2334   1.2534   2.0393   2.4928   2.7615

          k = 0.0833 0.3368 0.0000 (  4547 PWs)   bands (ev):

   -20.5118 -11.6613  -9.1126  -8.2771   2.5856   2.7663   3.4195   3.8634

          k = 0.0833 0.4330 0.0000 (  4575 PWs)   bands (ev):

   -19.2581 -13.7695  -9.7432  -6.8982   0.5841   4.3463   5.1639   5.1766

          k = 0.0833 0.5292 0.0000 (  4559 PWs)   bands (ev):

   -17.7885 -15.6968 -10.0695  -5.5876  -1.1845   4.9862   6.5485   7.3545

          k = 0.1667 0.2887 0.0000 (  4563 PWs)   bands (ev):

   -20.6711 -10.9269  -9.5802  -8.4558   2.3650   3.1558   3.2420   3.6350

          k = 0.1667 0.3849 0.0000 (  4575 PWs)   bands (ev):

   -19.5690 -12.6416 -10.6284  -7.2037   1.2981   3.9133   4.7012   5.2339

          k = 0.1667 0.4811 0.0000 (  4561 PWs)   bands (ev):

   -18.2011 -14.5380 -11.2013  -5.7772  -0.6125   5.8792   6.6134   6.8698

          k = 0.1667 0.5774 0.0000 (  4526 PWs)   bands (ev):

   -16.9786 -15.9587 -11.3851  -4.8830  -1.6818   6.7726   8.1390   8.3119

          k = 0.2500 0.4330 0.0000 (  4565 PWs)   bands (ev):

   -18.3477 -13.6734 -12.0962  -5.8618  -0.3107   5.6634   6.3356   7.0604

          k = 0.2500 0.5292 0.0000 (  4521 PWs)   bands (ev):

   -16.9352 -15.0831 -12.7993  -4.4762  -1.8286   7.4947   7.7750   8.9856

          k = 0.3333 0.5774 0.0000 (  4515 PWs)   bands (ev):

   -15.7273 -15.7269 -13.6819  -3.1223  -3.1220   7.2985   9.4750   9.4751

     the Fermi energy is    -3.1032 ev

!    total energy              =     -22.99306069 Ry
     estimated scf accuracy    <          1.1E-09 Ry
     smearing contrib. (-TS)   =      -0.00009116 Ry
     internal energy E=F+TS    =     -22.99296953 Ry

     The total energy is F=E-TS. E is the sum of the following terms:
     one-electron contribution =    -357.91658694 Ry
     hartree contribution      =     179.94417176 Ry
     xc contribution           =      -7.27262286 Ry
     ewald contribution        =     162.25206852 Ry

     convergence has been achieved in  10 iterations

     negative rho (up, down):  3.114E-04 0.000E+00

     Forces acting on atoms (cartesian axes, Ry/au):

     atom    1 type  1   force =     0.00000000    0.00000000    0.00000000
     atom    2 type  1   force =     0.00000000   -0.00000000    0.00000000

     Total force =     0.000000     Total SCF correction =     0.000000


     Computing stress (Cartesian axis) and pressure


     negative rho (up, down):  3.114E-04 0.000E+00
          total   stress  (Ry/bohr**3)                   (kbar)     P=       -1.17
  -0.00001054   0.00000000   0.00000000           -1.55        0.00        0.00
   0.00000000  -0.00001054   0.00000000            0.00       -1.55        0.00
  -0.00000000   0.00000000  -0.00000276           -0.00        0.00       -0.41


     Writing all to output data dir ./tmp/graphene_iso.save/
 
     init_run     :     13.01s CPU     13.38s WALL (       1 calls)
     electrons    :      3.93s CPU      5.08s WALL (       1 calls)
     forces       :      0.18s CPU      0.24s WALL (       1 calls)
     stress       :      0.53s CPU      0.72s WALL (       1 calls)

     Called by init_run:
     wfcinit      :      0.05s CPU      0.14s WALL (       1 calls)
     potinit      :     12.83s CPU     12.96s WALL (       1 calls)
     hinit0       :      0.08s CPU      0.18s WALL (       1 calls)

     Called by electrons:
     c_bands      :      1.68s CPU      1.79s WALL (      10 calls)
     sum_band     :      0.65s CPU      0.84s WALL (      10 calls)
     v_of_rho     :     14.06s CPU     14.95s WALL (      11 calls)
     newd         :      0.10s CPU      0.16s WALL (      11 calls)
     mix_rho      :      0.02s CPU      0.03s WALL (      10 calls)
     vdW_kernel   :     12.67s CPU     12.70s WALL (       1 calls)

     Called by c_bands:
     init_us_2    :      0.03s CPU      0.03s WALL (     437 calls)
     init_us_2:cp :      0.02s CPU      0.03s WALL (     437 calls)
     cegterg      :      1.61s CPU      1.69s WALL (     190 calls)

     Called by *egterg:
     cdiaghg      :      0.07s CPU      0.16s WALL (     999 calls)
     h_psi        :      1.31s CPU      1.39s WALL (    1018 calls)
     s_psi        :      0.02s CPU      0.02s WALL (    1018 calls)
     g_psi        :      0.01s CPU      0.01s WALL (     809 calls)

     Called by h_psi:
     h_psi:calbec :      0.05s CPU      0.06s WALL (    1018 calls)
     vloc_psi     :      1.24s CPU      1.31s WALL (    1018 calls)
     add_vuspsi   :      0.02s CPU      0.02s WALL (    1018 calls)

     General routines
     calbec       :      0.07s CPU      0.07s WALL (    1303 calls)
     fft          :      1.36s CPU      2.54s WALL (     860 calls)
     ffts         :      0.01s CPU      0.06s WALL (      21 calls)
     fftw         :      1.36s CPU      1.43s WALL (   11026 calls)
     interpolate  :      0.01s CPU      0.02s WALL (      11 calls)
 
     Parallel routines
 
     PWSCF        :     17.86s CPU     20.00s WALL

 
   This run was terminated on:   3:44:33  11Jun2026            

=------------------------------------------------------------------------------=
   JOB DONE.
=------------------------------------------------------------------------------=
