
     Program PWSCF v.7.4.1 starts on 10Jul2025 at 18:29: 9 

     This program is part of the open-source Quantum ESPRESSO suite
     for quantum simulation of materials; please cite
         "P. Giannozzi et al., J. Phys.:Condens. Matter 21 395502 (2009);
         "P. Giannozzi et al., J. Phys.:Condens. Matter 29 465901 (2017);
         "P. Giannozzi et al., J. Chem. Phys. 152 154105 (2020);
          URL http://www.quantum-espresso.org", 
     in publications or presentations arising from this work. More details at
     http://www.quantum-espresso.org/quote

     Parallel version (MPI & OpenMP), running on      80 processor cores
     Number of MPI processes:                80
     Threads/MPI process:                     1

     MPI processes distributed on     1 nodes
     3057863 MiB available memory on the printing compute node when the environment starts
 
     Waiting for input...
     Reading input from standard input

     Current dimensions of program PWSCF are:
     Max number of different atomic species (ntypx) = 10
     Max number of k-points (npk) =  40000
     Max angular momentum in pseudopotentials (lmaxx) =  4
     Message from routine setup:
     using ibrav=0 with symmetry is DISCOURAGED, use correct ibrav instead
 
     K-points division:     npool     =      20
     R & G space division:  proc/nbgrp/npool/nimage =       4
     Subspace diagonalization in iterative solution of the eigenvalue problem:
     a serial algorithm will be used

 
     Parallelization info
     --------------------
     sticks:   dense  smooth     PW     G-vecs:    dense   smooth      PW
     Min         267     107     37                11389     2888     573
     Max         268     109     38                11394     2891     576
     Sum        1069     433    151                45563    11561    2297
 
     Using Slab Decomposition
 


     bravais-lattice index     =            0
     lattice parameter (alat)  =       4.7040  a.u.
     unit-cell volume          =     145.4992 (a.u.)^3
     number of atoms/cell      =            2
     number of atomic types    =            1
     number of electrons       =        32.00
     number of Kohn-Sham states=           20
     kinetic-energy cutoff     =      70.0000  Ry
     charge density cutoff     =     700.0000  Ry
     scf convergence threshold =      1.0E-08
     mixing beta               =       0.7000
     number of iterations used =            8  plain     mixing
     energy convergence thresh.=      1.0E-04
     force convergence thresh. =      1.0E-03
     press convergence thresh. =      5.0E-01
     Exchange-correlation= SLA  PW   PSX  PSC
                           (   1   4  10   8   0   0   0)
     nstep                     =           50


     celldm(1)=   4.703973  celldm(2)=   0.000000  celldm(3)=   0.000000
     celldm(4)=   0.000000  celldm(5)=   0.000000  celldm(6)=   0.000000

     crystal axes: (cart. coord. in units of alat)
               a(1) = (   0.500154  -0.865937   0.000000 )  
               a(2) = (   0.500154   0.865937   0.000000 )  
               a(3) = (   0.000000   0.000000   1.613789 )  

     reciprocal axes: (cart. coord. in units 2 pi/alat)
               b(1) = (  0.999693 -0.577409  0.000000 )  
               b(2) = (  0.999693  0.577409  0.000000 )  
               b(3) = (  0.000000  0.000000  0.619660 )  


     PseudoPot. # 1 for Fe read from file:
     /home/m0049/m004905/PSPOT/fe_pbesol_v1.5.uspp.F.UPF
     MD5 check sum: a3f38e9a1a818e424be8f97771a26c64
     Pseudo is Ultrasoft + core correction, Zval = 16.0
     Generated by new atomic code, or converted to UPF format
     Using radial grid of  861 points,  6 beta functions with: 
                l(1) =   0
                l(2) =   0
                l(3) =   1
                l(4) =   1
                l(5) =   2
                l(6) =   2
     Q(r) pseudized with  8 coefficients,  rinner =    1.000   1.000   1.000
                                                       1.000   1.000

     atomic species   valence    mass     pseudopotential
     Fe               16.00    55.84500     Fe( 1.00)

      8 Sym. Ops., with inversion, found ( 4 have fractional translation)



   Cartesian axes

     site n.     atom                  positions (alat units)
         1        Fe     tau(   1) = (   0.0000000   0.0000000   0.0000000  )
         2        Fe     tau(   2) = (   0.5001536  -0.2886456   0.8068944  )

     number of k points=   215  Methfessel-Paxton smearing, width (Ry)=  0.0100

     Number of k-points >= 100: set verbosity='high' to print them.

     Dense  grid:    45563 G-vectors     FFT dimensions: (  45,  45,  64)

     Smooth grid:    11561 G-vectors     FFT dimensions: (  27,  27,  48)

     Estimated max dynamical RAM per process >      14.48 MB

     Estimated total dynamical RAM >     947.11 MB

     Check: negative core charge=   -0.000055

     Initial potential from superposition of free atoms

     starting charge      30.0000, renormalised to      32.0000
     Starting wfcs are   26 randomized atomic wfcs

     total cpu time spent up to now is        6.7 secs

     Self-consistent Calculation

     iteration #  1     ecut=    70.00 Ry     beta= 0.70
     Davidson diagonalization with overlap
     ethr =  1.00E-02,  avg # of iterations =  2.0

     total cpu time spent up to now is        7.9 secs

     total energy              =    -497.73921274 Ry
     estimated scf accuracy    <       4.86181602 Ry

     iteration #  2     ecut=    70.00 Ry     beta= 0.70
     Davidson diagonalization with overlap
     ethr =  1.00E-02,  avg # of iterations =  3.0

     total cpu time spent up to now is        9.9 secs

     total energy              =    -498.12529762 Ry
     estimated scf accuracy    <      12.89345232 Ry

     iteration #  3     ecut=    70.00 Ry     beta= 0.70
     Davidson diagonalization with overlap
     ethr =  1.00E-02,  avg # of iterations =  2.4

     total cpu time spent up to now is       10.5 secs

     total energy              =    -500.38019986 Ry
     estimated scf accuracy    <       0.00636447 Ry

     iteration #  4     ecut=    70.00 Ry     beta= 0.70
     Davidson diagonalization with overlap
     ethr =  1.99E-05,  avg # of iterations =  3.2

     total cpu time spent up to now is       10.7 secs

     total energy              =    -500.37468676 Ry
     estimated scf accuracy    <       0.01800809 Ry

     iteration #  5     ecut=    70.00 Ry     beta= 0.70
     Davidson diagonalization with overlap
     ethr =  1.99E-05,  avg # of iterations =  3.2

     total cpu time spent up to now is       11.2 secs

     total energy              =    -500.38535624 Ry
     estimated scf accuracy    <       0.02668000 Ry

     iteration #  6     ecut=    70.00 Ry     beta= 0.70
     Davidson diagonalization with overlap
     ethr =  1.99E-05,  avg # of iterations =  1.1

     total cpu time spent up to now is       11.3 secs

     total energy              =    -500.38391788 Ry
     estimated scf accuracy    <       0.01402953 Ry

     iteration #  7     ecut=    70.00 Ry     beta= 0.70
     Davidson diagonalization with overlap
     ethr =  1.99E-05,  avg # of iterations =  1.2

     total cpu time spent up to now is       11.4 secs

     total energy              =    -500.38240806 Ry
     estimated scf accuracy    <       0.00651721 Ry

     iteration #  8     ecut=    70.00 Ry     beta= 0.70
     Davidson diagonalization with overlap
     ethr =  1.99E-05,  avg # of iterations =  1.9

     total cpu time spent up to now is       11.6 secs

     total energy              =    -500.38258375 Ry
     estimated scf accuracy    <       0.00077542 Ry

     iteration #  9     ecut=    70.00 Ry     beta= 0.70
     Davidson diagonalization with overlap
     ethr =  2.42E-06,  avg # of iterations =  2.4

     total cpu time spent up to now is       11.7 secs

     total energy              =    -500.38277351 Ry
     estimated scf accuracy    <       0.00001298 Ry

     iteration # 10     ecut=    70.00 Ry     beta= 0.70
     Davidson diagonalization with overlap
     ethr =  4.06E-08,  avg # of iterations =  3.1

     total cpu time spent up to now is       11.9 secs

     total energy              =    -500.38276923 Ry
     estimated scf accuracy    <       0.00008071 Ry

     iteration # 11     ecut=    70.00 Ry     beta= 0.70
     Davidson diagonalization with overlap
     ethr =  4.06E-08,  avg # of iterations =  3.0

     total cpu time spent up to now is       12.1 secs

     total energy              =    -500.38278121 Ry
     estimated scf accuracy    <       0.00000043 Ry

     iteration # 12     ecut=    70.00 Ry     beta= 0.70
     Davidson diagonalization with overlap
     ethr =  1.33E-09,  avg # of iterations =  2.7

     total cpu time spent up to now is       12.3 secs

     total energy              =    -500.38278129 Ry
     estimated scf accuracy    <       0.00000042 Ry

     iteration # 13     ecut=    70.00 Ry     beta= 0.70
     Davidson diagonalization with overlap
     ethr =  1.31E-09,  avg # of iterations =  2.0

     total cpu time spent up to now is       12.4 secs

     End of self-consistent calculation

     Number of k-points >= 100: set verbosity='high' to print the bands.

     the Fermi energy is    19.2066 ev

!    total energy              =    -500.38278135 Ry
     estimated scf accuracy    <          6.5E-10 Ry
     smearing contrib. (-TS)   =       0.00014558 Ry
     internal energy E=F+TS    =    -500.38292693 Ry

     The total energy is F=E-TS. E is the sum of the following terms:
     one-electron contribution =    -216.77683001 Ry
     hartree contribution      =     128.21610506 Ry
     xc contribution           =     -57.60370948 Ry
     ewald contribution        =    -354.21849250 Ry

     convergence has been achieved in  13 iterations


     Computing stress (Cartesian axis) and pressure

          total   stress  (Ry/bohr**3)                   (kbar)     P=     -251.42
  -0.00152839   0.00000000   0.00000000         -224.83        0.00        0.00
   0.00000000  -0.00151902   0.00000000            0.00     -223.46        0.00
   0.00000000   0.00000000  -0.00207996            0.00        0.00     -305.97


     BFGS Geometry Optimization
     Energy error            =      3.5E-02 Ry
     Gradient error          =      0.0E+00 Ry/Bohr
     Cell gradient error     =      3.1E+02 kbar

     number of scf cycles    =   1
     number of bfgs steps    =   0

     enthalpy           new  =    -500.3827813543 Ry

     new trust radius        =       0.1254458463 bohr
     new conv_thr            =       0.0000000100 Ry

     new unit-cell volume =    127.62506 a.u.^3 (    18.91208 Ang^3 )
     density =      9.80673 g/cm^3

CELL_PARAMETERS (angstrom)
   1.197428914  -2.073663224   0.000000000
   1.197428914   2.073663224   0.000000000
   0.000000000   0.000000000   3.808214349

ATOMIC_POSITIONS (crystal)
Fe               0.0000000000        0.0000000000        0.0000000000    0   0   0
Fe               0.6666666667        0.3333333333        0.5000000000    0   0   0



     Writing config-only to output data dir ./out/Fe_hcp.save/ :
     XML data file
     NEW-OLD atomic charge density approx. for the potential
     New effective cutoffs (rho, wfc):  774.77   77.78

     Check: negative core charge=   -0.000029

     total cpu time spent up to now is       12.8 secs

     Self-consistent Calculation

     iteration #  1     ecut=    70.00 Ry     beta= 0.70
     Davidson diagonalization with overlap
     ethr =  1.00E-06,  avg # of iterations =  6.9

     total cpu time spent up to now is       13.0 secs

     total energy              =    -500.38478811 Ry
     estimated scf accuracy    <       0.01612386 Ry

     iteration #  2     ecut=    70.00 Ry     beta= 0.70
     Davidson diagonalization with overlap
     ethr =  5.04E-05,  avg # of iterations =  3.0

     total cpu time spent up to now is       13.2 secs

     total energy              =    -500.38638121 Ry
     estimated scf accuracy    <       0.04175845 Ry

     iteration #  3     ecut=    70.00 Ry     beta= 0.70
     Davidson diagonalization with overlap
     ethr =  5.04E-05,  avg # of iterations =  2.4

     total cpu time spent up to now is       13.4 secs

     total energy              =    -500.39369752 Ry
     estimated scf accuracy    <       0.00001871 Ry

     iteration #  4     ecut=    70.00 Ry     beta= 0.70
     Davidson diagonalization with overlap
     ethr =  5.85E-08,  avg # of iterations =  3.9

     total cpu time spent up to now is       13.6 secs

     total energy              =    -500.39373618 Ry
     estimated scf accuracy    <       0.00005276 Ry

     iteration #  5     ecut=    70.00 Ry     beta= 0.70
     Davidson diagonalization with overlap
     ethr =  5.85E-08,  avg # of iterations =  2.1

     total cpu time spent up to now is       13.8 secs

     total energy              =    -500.39374153 Ry
     estimated scf accuracy    <       0.00000197 Ry

     iteration #  6     ecut=    70.00 Ry     beta= 0.70
     Davidson diagonalization with overlap
     ethr =  6.16E-09,  avg # of iterations =  2.8

     total cpu time spent up to now is       13.9 secs

     total energy              =    -500.39374226 Ry
     estimated scf accuracy    <       0.00000079 Ry

     iteration #  7     ecut=    70.00 Ry     beta= 0.70
     Davidson diagonalization with overlap
     ethr =  2.47E-09,  avg # of iterations =  2.0

     total cpu time spent up to now is       14.1 secs

     total energy              =    -500.39374236 Ry
     estimated scf accuracy    <       0.00000001 Ry

     iteration #  8     ecut=    70.00 Ry     beta= 0.70
     Davidson diagonalization with overlap
     ethr =  4.54E-11,  avg # of iterations =  2.8

     total cpu time spent up to now is       14.3 secs

     End of self-consistent calculation

     Number of k-points >= 100: set verbosity='high' to print the bands.

     the Fermi energy is    22.4963 ev

!    total energy              =    -500.39374236 Ry
     estimated scf accuracy    <          1.8E-10 Ry
     smearing contrib. (-TS)   =       0.00005734 Ry
     internal energy E=F+TS    =    -500.39379971 Ry

     The total energy is F=E-TS. E is the sum of the following terms:
     one-electron contribution =    -192.11643502 Ry
     hartree contribution      =     119.58869598 Ry
     xc contribution           =     -57.85868869 Ry
     ewald contribution        =    -370.00737198 Ry

     convergence has been achieved in   8 iterations


     Computing stress (Cartesian axis) and pressure

          total   stress  (Ry/bohr**3)                   (kbar)     P=      125.37
   0.00089141   0.00000000   0.00000000          131.13        0.00        0.00
   0.00000000   0.00089684   0.00000000            0.00      131.93        0.00
   0.00000000   0.00000000   0.00076841            0.00        0.00      113.04

     Energy error            =      1.1E-02 Ry
     Gradient error          =      0.0E+00 Ry/Bohr
     Cell gradient error     =      1.3E+02 kbar

     number of scf cycles    =   2
     number of bfgs steps    =   1

     enthalpy           old  =    -500.3827813543 Ry
     enthalpy           new  =    -500.3937423645 Ry

     CASE: enthalpy          _new < enthalpy          _old

     new trust radius        =       0.0328985423 bohr
     new conv_thr            =            1.0E-10 Ry

     new unit-cell volume =    133.03370 a.u.^3 (    19.71356 Ang^3 )
     density =      9.40802 g/cm^3

CELL_PARAMETERS (angstrom)
   1.214764329  -2.103856964   0.000000000
   1.214764329   2.103856964   0.000000000
   0.000000000   0.000000000   3.856797355

ATOMIC_POSITIONS (crystal)
Fe               0.0000000000        0.0000000000        0.0000000000    0   0   0
Fe               0.6666666667        0.3333333333        0.5000000000    0   0   0



     Writing config-only to output data dir ./out/Fe_hcp.save/ :
     XML data file
     NEW-OLD atomic charge density approx. for the potential
     New effective cutoffs (rho, wfc):  754.91   75.82

     Check: negative core charge=   -0.000038

     total cpu time spent up to now is       14.4 secs

     Self-consistent Calculation

     iteration #  1     ecut=    70.00 Ry     beta= 0.70
     Davidson diagonalization with overlap
     ethr =  1.00E-06,  avg # of iterations =  4.0

     total cpu time spent up to now is       14.6 secs

     total energy              =    -500.39480565 Ry
     estimated scf accuracy    <       0.00144729 Ry

     iteration #  2     ecut=    70.00 Ry     beta= 0.70
     Davidson diagonalization with overlap
     ethr =  4.52E-06,  avg # of iterations =  3.0

     total cpu time spent up to now is       14.8 secs

     total energy              =    -500.39495494 Ry
     estimated scf accuracy    <       0.00383418 Ry

     iteration #  3     ecut=    70.00 Ry     beta= 0.70
     Davidson diagonalization with overlap
     ethr =  4.52E-06,  avg # of iterations =  2.5

     total cpu time spent up to now is       14.9 secs

     total energy              =    -500.39561049 Ry
     estimated scf accuracy    <       0.00000305 Ry

     iteration #  4     ecut=    70.00 Ry     beta= 0.70
     Davidson diagonalization with overlap
     ethr =  9.52E-09,  avg # of iterations =  3.7

     total cpu time spent up to now is       15.1 secs

     total energy              =    -500.39561482 Ry
     estimated scf accuracy    <       0.00000589 Ry

     iteration #  5     ecut=    70.00 Ry     beta= 0.70
     Davidson diagonalization with overlap
     ethr =  9.52E-09,  avg # of iterations =  2.0

     total cpu time spent up to now is       15.3 secs

     total energy              =    -500.39561553 Ry
     estimated scf accuracy    <       0.00000014 Ry

     iteration #  6     ecut=    70.00 Ry     beta= 0.70
     Davidson diagonalization with overlap
     ethr =  4.42E-10,  avg # of iterations =  3.1

     total cpu time spent up to now is       15.5 secs

     total energy              =    -500.39561559 Ry
     estimated scf accuracy    <       0.00000008 Ry

     iteration #  7     ecut=    70.00 Ry     beta= 0.70
     Davidson diagonalization with overlap
     ethr =  2.64E-10,  avg # of iterations =  2.0

     total cpu time spent up to now is       15.6 secs

     total energy              =    -500.39561560 Ry
     estimated scf accuracy    <          2.7E-09 Ry

     iteration #  8     ecut=    70.00 Ry     beta= 0.70
     Davidson diagonalization with overlap
     ethr =  8.44E-12,  avg # of iterations =  2.6

     total cpu time spent up to now is       15.8 secs

     End of self-consistent calculation

     Number of k-points >= 100: set verbosity='high' to print the bands.

     the Fermi energy is    21.4062 ev

!    total energy              =    -500.39561560 Ry
     estimated scf accuracy    <          2.0E-11 Ry
     smearing contrib. (-TS)   =       0.00007396 Ry
     internal energy E=F+TS    =    -500.39568956 Ry

     The total energy is F=E-TS. E is the sum of the following terms:
     one-electron contribution =    -200.02111561 Ry
     hartree contribution      =     122.31586541 Ry
     xc contribution           =     -57.77188127 Ry
     ewald contribution        =    -364.91855809 Ry

     convergence has been achieved in   8 iterations


     Computing stress (Cartesian axis) and pressure

          total   stress  (Ry/bohr**3)                   (kbar)     P=      -19.34
  -0.00010509  -0.00000000   0.00000000          -15.46       -0.00        0.00
  -0.00000000  -0.00010268   0.00000000           -0.00      -15.11        0.00
   0.00000000   0.00000000  -0.00018670            0.00        0.00      -27.47

     Energy error            =      1.9E-03 Ry
     Gradient error          =      0.0E+00 Ry/Bohr
     Cell gradient error     =      2.7E+01 kbar

     number of scf cycles    =   3
     number of bfgs steps    =   2

     enthalpy           old  =    -500.3937423645 Ry
     enthalpy           new  =    -500.3956156013 Ry

     CASE: enthalpy          _new < enthalpy          _old

     new trust radius        =       0.0073444040 bohr
     new conv_thr            =            1.0E-10 Ry

     new unit-cell volume =    132.28988 a.u.^3 (    19.60334 Ang^3 )
     density =      9.46092 g/cm^3

CELL_PARAMETERS (angstrom)
   1.213261878  -2.101375087   0.000000000
   1.213261878   2.101375087   0.000000000
   0.000000000   0.000000000   3.844518085

ATOMIC_POSITIONS (crystal)
Fe               0.0000000000        0.0000000000        0.0000000000    0   0   0
Fe               0.6666666667        0.3333333333        0.5000000000    0   0   0



     Writing config-only to output data dir ./out/Fe_hcp.save/ :
     XML data file
     NEW-OLD atomic charge density approx. for the potential
     New effective cutoffs (rho, wfc):  759.22   76.29

     Check: negative core charge=   -0.000037

     total cpu time spent up to now is       15.9 secs

     Self-consistent Calculation

     iteration #  1     ecut=    70.00 Ry     beta= 0.70
     Davidson diagonalization with overlap
     ethr =  1.00E-06,  avg # of iterations =  3.7

     Threshold (ethr) on eigenvalues was too large:
     Diagonalizing with lowered threshold

     Davidson diagonalization with overlap
     ethr =  8.47E-08,  avg # of iterations =  1.6

     total cpu time spent up to now is       16.2 secs

     total energy              =    -500.39565999 Ry
     estimated scf accuracy    <       0.00002789 Ry

     iteration #  2     ecut=    70.00 Ry     beta= 0.70
     Davidson diagonalization with overlap
     ethr =  8.72E-08,  avg # of iterations =  3.0

     total cpu time spent up to now is       16.4 secs

     total energy              =    -500.39566261 Ry
     estimated scf accuracy    <       0.00007077 Ry

     iteration #  3     ecut=    70.00 Ry     beta= 0.70
     Davidson diagonalization with overlap
     ethr =  8.72E-08,  avg # of iterations =  2.4

     total cpu time spent up to now is       16.6 secs

     total energy              =    -500.39567502 Ry
     estimated scf accuracy    <       0.00000004 Ry

     iteration #  4     ecut=    70.00 Ry     beta= 0.70
     Davidson diagonalization with overlap
     ethr =  1.29E-10,  avg # of iterations =  3.7

     total cpu time spent up to now is       16.8 secs

     total energy              =    -500.39567508 Ry
     estimated scf accuracy    <       0.00000008 Ry

     iteration #  5     ecut=    70.00 Ry     beta= 0.70
     Davidson diagonalization with overlap
     ethr =  1.29E-10,  avg # of iterations =  2.0

     total cpu time spent up to now is       16.9 secs

     total energy              =    -500.39567509 Ry
     estimated scf accuracy    <          3.0E-09 Ry

     iteration #  6     ecut=    70.00 Ry     beta= 0.70
     Davidson diagonalization with overlap
     ethr =  9.42E-12,  avg # of iterations =  3.0

     total cpu time spent up to now is       17.1 secs

     total energy              =    -500.39567509 Ry
     estimated scf accuracy    <          1.9E-09 Ry

     iteration #  7     ecut=    70.00 Ry     beta= 0.70
     Davidson diagonalization with overlap
     ethr =  6.04E-12,  avg # of iterations =  2.0

     total cpu time spent up to now is       17.2 secs

     End of self-consistent calculation

     Number of k-points >= 100: set verbosity='high' to print the bands.

     the Fermi energy is    21.5498 ev

!    total energy              =    -500.39567510 Ry
     estimated scf accuracy    <          3.9E-11 Ry
     smearing contrib. (-TS)   =       0.00007112 Ry
     internal energy E=F+TS    =    -500.39574622 Ry

     The total energy is F=E-TS. E is the sum of the following terms:
     one-electron contribution =    -198.96983711 Ry
     hartree contribution      =     121.95275812 Ry
     xc contribution           =     -57.78341526 Ry
     ewald contribution        =    -365.59525197 Ry

     convergence has been achieved in   7 iterations


     Computing stress (Cartesian axis) and pressure

          total   stress  (Ry/bohr**3)                   (kbar)     P=       -0.82
  -0.00000288   0.00000000   0.00000000           -0.42        0.00        0.00
   0.00000000  -0.00000212   0.00000000            0.00       -0.31        0.00
   0.00000000   0.00000000  -0.00001174            0.00        0.00       -1.73

     Energy error            =      5.9E-05 Ry
     Gradient error          =      0.0E+00 Ry/Bohr
     Cell gradient error     =      1.7E+00 kbar

     number of scf cycles    =   4
     number of bfgs steps    =   3

     enthalpy           old  =    -500.3956156013 Ry
     enthalpy           new  =    -500.3956750950 Ry

     CASE: enthalpy          _new < enthalpy          _old

     new trust radius        =       0.0005620229 bohr
     new conv_thr            =            1.0E-10 Ry

     new unit-cell volume =    132.25664 a.u.^3 (    19.59841 Ang^3 )
     density =      9.46330 g/cm^3

CELL_PARAMETERS (angstrom)
   1.213246024  -2.101387893   0.000000000
   1.213246024   2.101387893   0.000000000
   0.000000000   0.000000000   3.843578788

ATOMIC_POSITIONS (crystal)
Fe               0.0000000000        0.0000000000        0.0000000000    0   0   0
Fe               0.6666666667        0.3333333333        0.5000000000    0   0   0



     Writing config-only to output data dir ./out/Fe_hcp.save/ :
     XML data file
     NEW-OLD atomic charge density approx. for the potential
     New effective cutoffs (rho, wfc):  759.52   76.33

     Check: negative core charge=   -0.000037

     total cpu time spent up to now is       17.3 secs

     Self-consistent Calculation

     iteration #  1     ecut=    70.00 Ry     beta= 0.70
     Davidson diagonalization with overlap
     ethr =  1.00E-06,  avg # of iterations =  2.0

     Threshold (ethr) on eigenvalues was too large:
     Diagonalizing with lowered threshold

     Davidson diagonalization with overlap
     ethr =  1.28E-10,  avg # of iterations =  3.9

     total cpu time spent up to now is       17.7 secs

     total energy              =    -500.39567530 Ry
     estimated scf accuracy    <       0.00000007 Ry

     iteration #  2     ecut=    70.00 Ry     beta= 0.70
     Davidson diagonalization with overlap
     ethr =  2.30E-10,  avg # of iterations =  3.0

     total cpu time spent up to now is       17.9 secs

     total energy              =    -500.39567530 Ry
     estimated scf accuracy    <       0.00000015 Ry

     iteration #  3     ecut=    70.00 Ry     beta= 0.70
     Davidson diagonalization with overlap
     ethr =  2.30E-10,  avg # of iterations =  2.4

     total cpu time spent up to now is       18.0 secs

     total energy              =    -500.39567533 Ry
     estimated scf accuracy    <          4.4E-10 Ry

     iteration #  4     ecut=    70.00 Ry     beta= 0.70
     Davidson diagonalization with overlap
     ethr =  1.37E-12,  avg # of iterations =  2.6

     total cpu time spent up to now is       18.2 secs

     total energy              =    -500.39567533 Ry
     estimated scf accuracy    <          1.8E-10 Ry

     iteration #  5     ecut=    70.00 Ry     beta= 0.70
     Davidson diagonalization with overlap
     ethr =  5.49E-13,  avg # of iterations =  2.0

     total cpu time spent up to now is       18.3 secs

     End of self-consistent calculation

     Number of k-points >= 100: set verbosity='high' to print the bands.

     the Fermi energy is    21.5561 ev

!    total energy              =    -500.39567533 Ry
     estimated scf accuracy    <          5.3E-12 Ry
     smearing contrib. (-TS)   =       0.00007091 Ry
     internal energy E=F+TS    =    -500.39574624 Ry

     The total energy is F=E-TS. E is the sum of the following terms:
     one-electron contribution =    -198.92347543 Ry
     hartree contribution      =     121.93678336 Ry
     xc contribution           =     -57.78392276 Ry
     ewald contribution        =    -365.62513141 Ry

     convergence has been achieved in   5 iterations


     Computing stress (Cartesian axis) and pressure

          total   stress  (Ry/bohr**3)                   (kbar)     P=       -0.24
  -0.00000158   0.00000000   0.00000000           -0.23        0.00        0.00
   0.00000000  -0.00000138   0.00000000            0.00       -0.20        0.00
   0.00000000   0.00000000  -0.00000195            0.00        0.00       -0.29

     Energy error            =      2.4E-07 Ry
     Gradient error          =      0.0E+00 Ry/Bohr
     Cell gradient error     =      2.9E-01 kbar

     bfgs converged in   5 scf cycles and   4 bfgs steps
     (criteria: energy <  1.0E-04 Ry, force <  1.0E-03 Ry/Bohr, cell <  5.0E-01 kbar)

     End of BFGS Geometry Optimization

     Final enthalpy           =    -500.3956753331 Ry

     File ./out/Fe_hcp.bfgs deleted, as requested
Begin final coordinates
     new unit-cell volume =    132.25664 a.u.^3 (    19.59841 Ang^3 )
     density =      9.46330 g/cm^3

CELL_PARAMETERS (angstrom)
   1.213246024  -2.101387893   0.000000000
   1.213246024   2.101387893   0.000000000
   0.000000000   0.000000000   3.843578788

ATOMIC_POSITIONS (crystal)
Fe               0.0000000000        0.0000000000        0.0000000000    0   0   0
Fe               0.6666666667        0.3333333333        0.5000000000    0   0   0
End final coordinates



     Writing config-only to output data dir ./out/Fe_hcp.save/ :
     XML data file

     Final scf calculation at the relaxed structure.
     The G-vectors are recalculated for the final unit cell
     Results may differ from those at the preceding step.
 
     Parallelization info
     --------------------
     sticks:   dense  smooth     PW     G-vecs:    dense   smooth      PW
     Min         256     102     34                10360     2616     522
     Max         257     103     35                10361     2619     525
     Sum        1027     409    139                41443    10467    2093
 
     Using Slab Decomposition
 


     bravais-lattice index     =            0
     lattice parameter (alat)  =       4.7040  a.u.
     unit-cell volume          =     132.2566 (a.u.)^3
     number of atoms/cell      =            2
     number of atomic types    =            1
     number of electrons       =        32.00
     number of Kohn-Sham states=           20
     kinetic-energy cutoff     =      70.0000  Ry
     charge density cutoff     =     700.0000  Ry
     scf convergence threshold =      1.0E-10
     mixing beta               =       0.7000
     number of iterations used =            8  plain     mixing
     press convergence thresh. =      5.0E-01
     Exchange-correlation= SLA  PW   PSX  PSC
                           (   1   4  10   8   0   0   0)

     celldm(1)=   4.703973  celldm(2)=   0.000000  celldm(3)=   0.000000
     celldm(4)=   0.000000  celldm(5)=   0.000000  celldm(6)=   0.000000

     crystal axes: (cart. coord. in units of alat)
               a(1) = (   0.487397  -0.844190   0.000000 )  
               a(2) = (   0.487397   0.844190   0.000000 )  
               a(3) = (   0.000000   0.000000   1.544080 )  

     reciprocal axes: (cart. coord. in units 2 pi/alat)
               b(1) = (  1.025858 -0.592284  0.000000 )  
               b(2) = (  1.025858  0.592284  0.000000 )  
               b(3) = (  0.000000  0.000000  0.647635 )  


     PseudoPot. # 1 for Fe read from file:
     /home/m0049/m004905/PSPOT/fe_pbesol_v1.5.uspp.F.UPF
     MD5 check sum: a3f38e9a1a818e424be8f97771a26c64
     Pseudo is Ultrasoft + core correction, Zval = 16.0
     Generated by new atomic code, or converted to UPF format
     Using radial grid of  861 points,  6 beta functions with: 
                l(1) =   0
                l(2) =   0
                l(3) =   1
                l(4) =   1
                l(5) =   2
                l(6) =   2
     Q(r) pseudized with  8 coefficients,  rinner =    1.000   1.000   1.000
                                                       1.000   1.000

     atomic species   valence    mass     pseudopotential
     Fe               16.00    55.84500     Fe( 1.00)

      8 Sym. Ops., with inversion, found ( 4 have fractional translation)



   Cartesian axes

     site n.     atom                  positions (alat units)
         1        Fe     tau(   1) = (   0.0000000   0.0000000   0.0000000  )
         2        Fe     tau(   2) = (   0.4873971  -0.2813967   0.7720401  )

     number of k points=   215  Methfessel-Paxton smearing, width (Ry)=  0.0100

     Number of k-points >= 100: set verbosity='high' to print them.

     Dense  grid:    41443 G-vectors     FFT dimensions: (  45,  45,  64)

     Smooth grid:    10467 G-vectors     FFT dimensions: (  27,  27,  40)

     Estimated max dynamical RAM per process >      13.85 MB

     Estimated total dynamical RAM >     915.48 MB

     Check: negative core charge=   -0.000058

     Initial potential from superposition of free atoms

     starting charge      30.0000, renormalised to      32.0000
     Starting wfcs are   26 randomized atomic wfcs

     total cpu time spent up to now is       19.2 secs

     Self-consistent Calculation

     iteration #  1     ecut=    70.00 Ry     beta= 0.70
     Davidson diagonalization with overlap
     ethr =  1.00E-06,  avg # of iterations =  8.0

     total cpu time spent up to now is       19.5 secs

     total energy              =    -497.75097136 Ry
     estimated scf accuracy    <       4.81757953 Ry

     iteration #  2     ecut=    70.00 Ry     beta= 0.70
     Davidson diagonalization with overlap
     ethr =  1.00E-02,  avg # of iterations =  3.0

     total cpu time spent up to now is       19.7 secs

     total energy              =    -498.24424742 Ry
     estimated scf accuracy    <      11.95588122 Ry

     iteration #  3     ecut=    70.00 Ry     beta= 0.70
     Davidson diagonalization with overlap
     ethr =  1.00E-02,  avg # of iterations =  2.3

     total cpu time spent up to now is       19.9 secs

     total energy              =    -500.39249928 Ry
     estimated scf accuracy    <       0.00327901 Ry

     iteration #  4     ecut=    70.00 Ry     beta= 0.70
     Davidson diagonalization with overlap
     ethr =  1.02E-05,  avg # of iterations =  3.4

     total cpu time spent up to now is       20.0 secs

     total energy              =    -500.38983615 Ry
     estimated scf accuracy    <       0.01145492 Ry

     iteration #  5     ecut=    70.00 Ry     beta= 0.70
     Davidson diagonalization with overlap
     ethr =  1.02E-05,  avg # of iterations =  3.4

     total cpu time spent up to now is       20.2 secs

     total energy              =    -500.39648143 Ry
     estimated scf accuracy    <       0.02357583 Ry

     iteration #  6     ecut=    70.00 Ry     beta= 0.70
     Davidson diagonalization with overlap
     ethr =  1.02E-05,  avg # of iterations =  2.0

     total cpu time spent up to now is       20.4 secs

     total energy              =    -500.39594254 Ry
     estimated scf accuracy    <       0.00795971 Ry

     iteration #  7     ecut=    70.00 Ry     beta= 0.70
     Davidson diagonalization with overlap
     ethr =  1.02E-05,  avg # of iterations =  1.9

     total cpu time spent up to now is       20.5 secs

     total energy              =    -500.39494368 Ry
     estimated scf accuracy    <       0.00304052 Ry

     iteration #  8     ecut=    70.00 Ry     beta= 0.70
     Davidson diagonalization with overlap
     ethr =  9.50E-06,  avg # of iterations =  2.0

     total cpu time spent up to now is       20.6 secs

     total energy              =    -500.39553362 Ry
     estimated scf accuracy    <       0.00000023 Ry

     iteration #  9     ecut=    70.00 Ry     beta= 0.70
     Davidson diagonalization with overlap
     ethr =  7.04E-10,  avg # of iterations =  4.8

     total cpu time spent up to now is       20.8 secs

     total energy              =    -500.39553912 Ry
     estimated scf accuracy    <       0.00000044 Ry

     iteration # 10     ecut=    70.00 Ry     beta= 0.70
     Davidson diagonalization with overlap
     ethr =  7.04E-10,  avg # of iterations =  3.5

     total cpu time spent up to now is       21.0 secs

     total energy              =    -500.39553704 Ry
     estimated scf accuracy    <       0.00000686 Ry

     iteration # 11     ecut=    70.00 Ry     beta= 0.70
     Davidson diagonalization with overlap
     ethr =  7.04E-10,  avg # of iterations =  3.7

     total cpu time spent up to now is       21.2 secs

     total energy              =    -500.39553826 Ry
     estimated scf accuracy    <          3.0E-09 Ry

     iteration # 12     ecut=    70.00 Ry     beta= 0.70
     Davidson diagonalization with overlap
     ethr =  9.33E-12,  avg # of iterations =  2.4

     total cpu time spent up to now is       21.3 secs

     total energy              =    -500.39553826 Ry
     estimated scf accuracy    <          7.4E-09 Ry

     iteration # 13     ecut=    70.00 Ry     beta= 0.70
     Davidson diagonalization with overlap
     ethr =  9.33E-12,  avg # of iterations =  3.1

     total cpu time spent up to now is       21.5 secs

     total energy              =    -500.39553826 Ry
     estimated scf accuracy    <       0.00000001 Ry

     iteration # 14     ecut=    70.00 Ry     beta= 0.70
     Davidson diagonalization with overlap
     ethr =  9.33E-12,  avg # of iterations =  2.0

     total cpu time spent up to now is       21.6 secs

     total energy              =    -500.39553826 Ry
     estimated scf accuracy    <          2.6E-09 Ry

     iteration # 15     ecut=    70.00 Ry     beta= 0.70
     Davidson diagonalization with overlap
     ethr =  8.05E-12,  avg # of iterations =  2.0

     total cpu time spent up to now is       21.8 secs

     End of self-consistent calculation

     Number of k-points >= 100: set verbosity='high' to print the bands.

     the Fermi energy is    21.5561 ev

!    total energy              =    -500.39553826 Ry
     estimated scf accuracy    <          9.2E-11 Ry
     smearing contrib. (-TS)   =       0.00007087 Ry
     internal energy E=F+TS    =    -500.39560914 Ry

     The total energy is F=E-TS. E is the sum of the following terms:
     one-electron contribution =    -198.92352260 Ry
     hartree contribution      =     121.93708316 Ry
     xc contribution           =     -57.78403830 Ry
     ewald contribution        =    -365.62513141 Ry

     convergence has been achieved in  15 iterations


     Computing stress (Cartesian axis) and pressure

          total   stress  (Ry/bohr**3)                   (kbar)     P=       -1.00
  -0.00000605   0.00000000   0.00000000           -0.89        0.00        0.00
   0.00000000  -0.00000583   0.00000000            0.00       -0.86        0.00
   0.00000000   0.00000000  -0.00000848            0.00        0.00       -1.25


     Writing all to output data dir ./out/Fe_hcp.save/ :
     XML data file, charge density, pseudopotentials, collected wavefunctions
 
     init_run     :      0.45s CPU      5.36s WALL (       2 calls)
     electrons    :     10.41s CPU     13.64s WALL (       6 calls)
     update_pot   :      0.06s CPU      0.07s WALL (       4 calls)
     stress       :      0.31s CPU      0.33s WALL (       6 calls)

     Called by init_run:
     wfcinit      :      0.09s CPU      1.48s WALL (       2 calls)
     potinit      :      0.03s CPU      0.71s WALL (       2 calls)
     hinit0       :      0.16s CPU      1.83s WALL (       2 calls)

     Called by electrons:
     c_bands      :      8.09s CPU      9.78s WALL (      58 calls)
     sum_band     :      1.38s CPU      1.81s WALL (      58 calls)
     v_of_rho     :      0.72s CPU      0.84s WALL (      62 calls)
     newd         :      0.14s CPU      1.09s WALL (      62 calls)
     mix_rho      :      0.06s CPU      0.83s WALL (      58 calls)

     Called by c_bands:
     init_us_2    :      0.13s CPU      0.14s WALL (    1364 calls)
     cegterg      :      6.22s CPU      7.69s WALL (     638 calls)

     Called by *egterg:
     cdiaghg      :      0.97s CPU      2.30s WALL (    2357 calls)
     h_psi        :      4.61s CPU      5.63s WALL (    2445 calls)
     s_psi        :      0.08s CPU      0.08s WALL (    2445 calls)
     g_psi        :      0.02s CPU      0.03s WALL (    1785 calls)

     Called by h_psi:
     h_psi:calbec :      0.16s CPU      0.91s WALL (    2445 calls)
     vloc_psi     :      4.34s CPU      4.59s WALL (    2445 calls)
                                        0.00s GPU  (    2445 calls)
     add_vuspsi   :      0.09s CPU      0.09s WALL (    2445 calls)

     General routines
     calbec       :      0.24s CPU      1.00s WALL (    3941 calls)
     fft          :      0.34s CPU      1.54s WALL (     884 calls)
     ffts         :      0.02s CPU      0.64s WALL (     120 calls)
     fftw         :      4.54s CPU      4.79s WALL (   86556 calls)
     interpolate  :      0.04s CPU      0.66s WALL (      62 calls)
 
     Parallel routines
 
     PWSCF        :     11.41s CPU     21.90s WALL

 
   This run was terminated on:  18:29:31  10Jul2025            

=------------------------------------------------------------------------------=
   JOB DONE.
=------------------------------------------------------------------------------=
