
     Program PWSCF v.7.1 starts on 11Jun2026 at  3:45:38 

     This program is part of the open-source Quantum ESPRESSO suite
     for quantum simulation of materials; please cite
         "P. Giannozzi et al., J. Phys.:Condens. Matter 21 395502 (2009);
         "P. Giannozzi et al., J. Phys.:Condens. Matter 29 465901 (2017);
         "P. Giannozzi et al., J. Chem. Phys. 152 154105 (2020);
          URL http://www.quantum-espresso.org", 
     in publications or presentations arising from this work. More details at
     http://www.quantum-espresso.org/quote

     Parallel version (MPI & OpenMP), running on       7 processor cores
     Number of MPI processes:                 7
     Threads/MPI process:                     1

     MPI processes distributed on     7 nodes
     223794 MiB available memory on the printing compute node when the environment starts
 
     Waiting for input...
     Reading input from standard input
Warning: card &CELL ignored
Warning: card / ignored
Warning: card &FCP ignored
Warning: card / ignored
Warning: card &RISM ignored
Warning: card / ignored

     Current dimensions of program PWSCF are:
     Max number of different atomic species (ntypx) = 10
     Max number of k-points (npk) =  40000
     Max angular momentum in pseudopotentials (lmaxx) =  4

     IMPORTANT: XC functional enforced from input :
     Exchange-correlation= VDW-DF2-B86R
                           (   1   4  26   0   2   0   0)
     Any further DFT definition will be discarded
     Please, verify this is what you really want

     Message from routine setup:
     using ibrav=0 with symmetry is DISCOURAGED, use correct ibrav instead
 
     R & G space division:  proc/nbgrp/npool/nimage =       7
     Subspace diagonalization in iterative solution of the eigenvalue problem:
     a serial algorithm will be used

 
     Parallelization info
     --------------------
     sticks:   dense  smooth     PW     G-vecs:    dense   smooth      PW
     Min          84      34     12                 3835      968     188
     Max          86      35     13                 3842      975     193
     Sum         595     241     85                26857     6799    1333
 
     Using Slab Decomposition
 


     bravais-lattice index     =            0
     lattice parameter (alat)  =       4.6633  a.u.
     unit-cell volume          =     199.2999 (a.u.)^3
     number of atoms/cell      =            4
     number of atomic types    =            1
     number of electrons       =        16.00
     number of Kohn-Sham states=           12
     kinetic-energy cutoff     =      40.0000  Ry
     charge density cutoff     =     400.0000  Ry
     scf convergence threshold =      1.0E-08
     mixing beta               =       0.3000
     number of iterations used =            8  plain     mixing
     Exchange-correlation= VDW-DF2-B86R
                           (   1   4  26   0   2   0   0)

     celldm(1)=   4.663315  celldm(2)=   0.000000  celldm(3)=   0.000000
     celldm(4)=   0.000000  celldm(5)=   0.000000  celldm(6)=   0.000000

     crystal axes: (cart. coord. in units of alat)
               a(1) = (   1.000000   0.000000   0.000000 )  
               a(2) = (  -0.500000   0.866025   0.000000 )  
               a(3) = (   0.000000   0.000000   2.269301 )  

     reciprocal axes: (cart. coord. in units 2 pi/alat)
               b(1) = (  1.000000  0.577350  0.000000 )  
               b(2) = (  0.000000  1.154701  0.000000 )  
               b(3) = (  0.000000  0.000000  0.440664 )  


     PseudoPot. # 1 for C  read from file:
     /home/k0750/k075000/PSPOT/c_pbe_v1.2.uspp.F.UPF
     MD5 check sum: d1aef80898a10debaa0f26306b886e00
     Pseudo is Ultrasoft + core correction, Zval =  4.0
     Generated by new atomic code, or converted to UPF format
     Using radial grid of  721 points,  4 beta functions with: 
                l(1) =   0
                l(2) =   0
                l(3) =   1
                l(4) =   1
     Q(r) pseudized with  8 coefficients,  rinner =    1.100   1.100   1.100


     atomic species   valence    mass     pseudopotential
        C              4.00    12.01100     C ( 1.00)

      8 Sym. Ops., with inversion, found ( 4 have fractional translation)



   Cartesian axes

     site n.     atom                  positions (alat units)
         1           C   tau(   1) = (   0.0000000   0.0000000   1.7019759  )
         2           C   tau(   2) = (   0.0000000   0.0000000   0.5673253  )
         3           C   tau(   3) = (  -0.0000050   0.5773532   1.7019759  )
         4           C   tau(   4) = (   0.5000050   0.2886722   0.5673253  )

     number of k points=   215  Marzari-Vanderbilt smearing, width (Ry)=  0.0100

     Number of k-points >= 100: set verbosity='high' to print them.

     Dense  grid:    26857 G-vectors     FFT dimensions: (  30,  30,  72)

     Smooth grid:     6799 G-vectors     FFT dimensions: (  20,  20,  48)

     Estimated max dynamical RAM per process >      10.69 MB

     Estimated total dynamical RAM >      74.84 MB

     Initial potential from superposition of free atoms

     starting charge      15.9998, renormalised to      16.0000


     %%%%%%%%%%%%%%%%%%%%%%%%%%%%%%%%%%%%%%%%%%%%%%%%%%%%%%%%%%%%%%%%%%%%%%%%
     %                                                                      %
     % You are using vdW-DF, which was implemented by the Thonhauser group. %
     % Please cite the following two papers that made this development      %
     % possible and the two reviews that describe the various versions:     %
     %                                                                      %
     %   T. Thonhauser et al., PRL 115, 136402 (2015).                      %
     %   T. Thonhauser et al., PRB 76, 125112 (2007).                       %
     %   K. Berland et al., Rep. Prog. Phys. 78, 066501 (2015).             %
     %   D.C. Langreth et al., J. Phys.: Condens. Matter 21, 084203 (2009). %
     %                                                                      %
     % If you are calculating stress with vdW-DF, please also cite:         %
     %                                                                      %
     %   R. Sabatini et al., J. Phys.: Condens. Matter 24, 424209 (2012).   %
     %                                                                      %
     %%%%%%%%%%%%%%%%%%%%%%%%%%%%%%%%%%%%%%%%%%%%%%%%%%%%%%%%%%%%%%%%%%%%%%%%

     %%%%%%%%%%%%%%%%%%%%%%%%%%%%%%%%%%%%%%%%%%%%%%%%%%%%%%%%%%%%%%%%%%%%%%%%
     %                                                                      %
     %  vdW-DF NEWS:                                                        %
     %                                                                      %
     %  * vdW-DF3 is now available. DOI: 10.1021/acs.jctc.0c00471           %
     %    use with input_dft = 'vdW-DF3-opt1' or 'vdW-DF3-opt2'             %
     %                                                                      %
     %  * Unscreened and range-separated vdW-DF hybrid functionals          %
     %    DOI: 10.1063/1.4986522 and 10.1088/1361-648X/ac2ad2               %
     %    use with input_dft = 'vdW-DF-cx0' (etc) and 'vdW-DF-ahcx'         %
     %                                                                      %
     %%%%%%%%%%%%%%%%%%%%%%%%%%%%%%%%%%%%%%%%%%%%%%%%%%%%%%%%%%%%%%%%%%%%%%%%


     Starting wfcs are   16 randomized atomic wfcs

     total cpu time spent up to now is       13.3 secs

     Self-consistent Calculation

     iteration #  1     ecut=    40.00 Ry     beta= 0.30
     Davidson diagonalization with overlap
     ethr =  1.00E-02,  avg # of iterations =  2.6

     total cpu time spent up to now is       14.5 secs

     total energy              =     -46.03130584 Ry
     estimated scf accuracy    <       0.34130517 Ry

     iteration #  2     ecut=    40.00 Ry     beta= 0.30
     Davidson diagonalization with overlap
     ethr =  2.13E-03,  avg # of iterations =  1.2

     total cpu time spent up to now is       15.4 secs

     total energy              =     -45.96864474 Ry
     estimated scf accuracy    <       0.12568987 Ry

     iteration #  3     ecut=    40.00 Ry     beta= 0.30
     Davidson diagonalization with overlap
     ethr =  7.86E-04,  avg # of iterations =  3.3

     total cpu time spent up to now is       16.4 secs

     total energy              =     -45.98842863 Ry
     estimated scf accuracy    <       0.00228816 Ry

     iteration #  4     ecut=    40.00 Ry     beta= 0.30
     Davidson diagonalization with overlap
     ethr =  1.43E-05,  avg # of iterations =  5.3

     total cpu time spent up to now is       17.7 secs

     total energy              =     -45.98824950 Ry
     estimated scf accuracy    <       0.00176096 Ry

     iteration #  5     ecut=    40.00 Ry     beta= 0.30
     Davidson diagonalization with overlap
     ethr =  1.10E-05,  avg # of iterations =  2.2

     total cpu time spent up to now is       18.7 secs

     total energy              =     -45.98850772 Ry
     estimated scf accuracy    <       0.00001705 Ry

     iteration #  6     ecut=    40.00 Ry     beta= 0.30
     Davidson diagonalization with overlap
     ethr =  1.07E-07,  avg # of iterations =  2.9

     total cpu time spent up to now is       19.6 secs

     total energy              =     -45.98851000 Ry
     estimated scf accuracy    <       0.00000142 Ry

     iteration #  7     ecut=    40.00 Ry     beta= 0.30
     Davidson diagonalization with overlap
     ethr =  8.84E-09,  avg # of iterations =  1.8

     total cpu time spent up to now is       20.4 secs

     total energy              =     -45.98851033 Ry
     estimated scf accuracy    <       0.00000043 Ry

     iteration #  8     ecut=    40.00 Ry     beta= 0.30
     Davidson diagonalization with overlap
     ethr =  2.70E-09,  avg # of iterations =  2.0

     total cpu time spent up to now is       21.3 secs

     total energy              =     -45.98851048 Ry
     estimated scf accuracy    <       0.00000040 Ry

     iteration #  9     ecut=    40.00 Ry     beta= 0.30
     Davidson diagonalization with overlap
     ethr =  2.47E-09,  avg # of iterations =  1.4

     total cpu time spent up to now is       22.1 secs

     End of self-consistent calculation

     Number of k-points >= 100: set verbosity='high' to print the bands.

     the Fermi energy is     9.0613 ev

!    total energy              =     -45.98851062 Ry
     estimated scf accuracy    <          6.8E-09 Ry
     smearing contrib. (-TS)   =      -0.00004999 Ry
     internal energy E=F+TS    =     -45.98846064 Ry

     The total energy is F=E-TS. E is the sum of the following terms:
     one-electron contribution =       1.45339272 Ry
     hartree contribution      =       8.54744036 Ry
     xc contribution           =     -14.64678232 Ry
     ewald contribution        =     -41.34251140 Ry

     convergence has been achieved in   9 iterations

     Forces acting on atoms (cartesian axes, Ry/au):

     atom    1 type  1   force =    -0.00002513    0.00001451    0.00000000
     atom    2 type  1   force =     0.00002513   -0.00001451    0.00000000
     atom    3 type  1   force =     0.00002521   -0.00001456    0.00000000
     atom    4 type  1   force =    -0.00002521    0.00001456    0.00000000

     Total force =     0.000058     Total SCF correction =     0.000000


     Computing stress (Cartesian axis) and pressure

          total   stress  (Ry/bohr**3)                   (kbar)     P=       37.70
  -0.00017869  -0.00000010   0.00000000          -26.29       -0.02        0.00
  -0.00000010  -0.00017881   0.00000000           -0.02      -26.30        0.00
   0.00000000   0.00000000   0.00112630            0.00        0.00      165.68


     Writing all to output data dir ./tmp/graphite_d_2p80000.save/
 
     init_run     :     13.06s CPU     13.22s WALL (       1 calls)
     electrons    :      8.00s CPU      8.79s WALL (       1 calls)
     forces       :      0.09s CPU      0.11s WALL (       1 calls)
     stress       :      0.20s CPU      0.24s WALL (       1 calls)

     Called by init_run:
     wfcinit      :      0.34s CPU      0.35s WALL (       1 calls)
     potinit      :     12.68s CPU     12.79s WALL (       1 calls)
     hinit0       :      0.03s CPU      0.06s WALL (       1 calls)

     Called by electrons:
     c_bands      :      6.68s CPU      7.19s WALL (       9 calls)
     sum_band     :      1.11s CPU      1.17s WALL (       9 calls)
     v_of_rho     :     12.84s CPU     13.16s WALL (      10 calls)
     newd         :      0.02s CPU      0.02s WALL (      10 calls)
     mix_rho      :      0.01s CPU      0.01s WALL (       9 calls)
     vdW_kernel   :     12.66s CPU     12.69s WALL (       1 calls)

     Called by c_bands:
     init_us_2    :      0.08s CPU      0.08s WALL (    4515 calls)
     init_us_2:cp :      0.07s CPU      0.08s WALL (    4515 calls)
     cegterg      :      6.34s CPU      6.67s WALL (    1935 calls)

     Called by *egterg:
     cdiaghg      :      0.85s CPU      0.91s WALL (    6820 calls)
     h_psi        :      4.84s CPU      5.09s WALL (    7035 calls)
     s_psi        :      0.09s CPU      0.10s WALL (    7035 calls)
     g_psi        :      0.02s CPU      0.02s WALL (    4885 calls)

     Called by h_psi:
     h_psi:calbec :      0.32s CPU      0.33s WALL (    7035 calls)
     vloc_psi     :      4.39s CPU      4.63s WALL (    7035 calls)
     add_vuspsi   :      0.10s CPU      0.10s WALL (    7035 calls)

     General routines
     calbec       :      0.46s CPU      0.48s WALL (   10045 calls)
     fft          :      0.14s CPU      0.52s WALL (     797 calls)
     ffts         :      0.03s CPU      0.03s WALL (      19 calls)
     fftw         :      4.87s CPU      5.11s WALL (  149446 calls)
     interpolate  :      0.00s CPU      0.01s WALL (      10 calls)
 
     Parallel routines
 
     PWSCF        :     21.76s CPU     23.34s WALL

 
   This run was terminated on:   3:46: 1  11Jun2026            

=------------------------------------------------------------------------------=
   JOB DONE.
=------------------------------------------------------------------------------=
