
     Program PWSCF v.7.1 starts on 11Jun2026 at  3:46:55 

     This program is part of the open-source Quantum ESPRESSO suite
     for quantum simulation of materials; please cite
         "P. Giannozzi et al., J. Phys.:Condens. Matter 21 395502 (2009);
         "P. Giannozzi et al., J. Phys.:Condens. Matter 29 465901 (2017);
         "P. Giannozzi et al., J. Chem. Phys. 152 154105 (2020);
          URL http://www.quantum-espresso.org", 
     in publications or presentations arising from this work. More details at
     http://www.quantum-espresso.org/quote

     Parallel version (MPI & OpenMP), running on       7 processor cores
     Number of MPI processes:                 7
     Threads/MPI process:                     1

     MPI processes distributed on     7 nodes
     223678 MiB available memory on the printing compute node when the environment starts
 
     Waiting for input...
     Reading input from standard input
Warning: card &CELL ignored
Warning: card / ignored
Warning: card &FCP ignored
Warning: card / ignored
Warning: card &RISM ignored
Warning: card / ignored

     Current dimensions of program PWSCF are:
     Max number of different atomic species (ntypx) = 10
     Max number of k-points (npk) =  40000
     Max angular momentum in pseudopotentials (lmaxx) =  4

     IMPORTANT: XC functional enforced from input :
     Exchange-correlation= VDW-DF2-B86R
                           (   1   4  26   0   2   0   0)
     Any further DFT definition will be discarded
     Please, verify this is what you really want

     Message from routine setup:
     using ibrav=0 with symmetry is DISCOURAGED, use correct ibrav instead
 
     R & G space division:  proc/nbgrp/npool/nimage =       7
     Subspace diagonalization in iterative solution of the eigenvalue problem:
     a serial algorithm will be used

 
     Parallelization info
     --------------------
     sticks:   dense  smooth     PW     G-vecs:    dense   smooth      PW
     Min          84      34     11                 4688     1182     224
     Max          86      35     13                 4696     1191     229
     Sum         595     241     85                32835     8307    1589
 
     Using Slab Decomposition
 


     bravais-lattice index     =            0
     lattice parameter (alat)  =       4.6633  a.u.
     unit-cell volume          =     242.0070 (a.u.)^3
     number of atoms/cell      =            4
     number of atomic types    =            1
     number of electrons       =        16.00
     number of Kohn-Sham states=           12
     kinetic-energy cutoff     =      40.0000  Ry
     charge density cutoff     =     400.0000  Ry
     scf convergence threshold =      1.0E-08
     mixing beta               =       0.3000
     number of iterations used =            8  plain     mixing
     Exchange-correlation= VDW-DF2-B86R
                           (   1   4  26   0   2   0   0)

     celldm(1)=   4.663315  celldm(2)=   0.000000  celldm(3)=   0.000000
     celldm(4)=   0.000000  celldm(5)=   0.000000  celldm(6)=   0.000000

     crystal axes: (cart. coord. in units of alat)
               a(1) = (   1.000000   0.000000   0.000000 )  
               a(2) = (  -0.500000   0.866025   0.000000 )  
               a(3) = (   0.000000   0.000000   2.755580 )  

     reciprocal axes: (cart. coord. in units 2 pi/alat)
               b(1) = (  1.000000  0.577350  0.000000 )  
               b(2) = (  0.000000  1.154701  0.000000 )  
               b(3) = (  0.000000  0.000000  0.362900 )  


     PseudoPot. # 1 for C  read from file:
     /home/k0750/k075000/PSPOT/c_pbe_v1.2.uspp.F.UPF
     MD5 check sum: d1aef80898a10debaa0f26306b886e00
     Pseudo is Ultrasoft + core correction, Zval =  4.0
     Generated by new atomic code, or converted to UPF format
     Using radial grid of  721 points,  4 beta functions with: 
                l(1) =   0
                l(2) =   0
                l(3) =   1
                l(4) =   1
     Q(r) pseudized with  8 coefficients,  rinner =    1.100   1.100   1.100


     atomic species   valence    mass     pseudopotential
        C              4.00    12.01100     C ( 1.00)

      8 Sym. Ops., with inversion, found ( 4 have fractional translation)



   Cartesian axes

     site n.     atom                  positions (alat units)
         1           C   tau(   1) = (   0.0000000   0.0000000   2.0666850  )
         2           C   tau(   2) = (   0.0000000   0.0000000   0.6888950  )
         3           C   tau(   3) = (  -0.0000050   0.5773532   2.0666850  )
         4           C   tau(   4) = (   0.5000050   0.2886722   0.6888950  )

     number of k points=   215  Marzari-Vanderbilt smearing, width (Ry)=  0.0100

     Number of k-points >= 100: set verbosity='high' to print them.

     Dense  grid:    32835 G-vectors     FFT dimensions: (  30,  30,  90)

     Smooth grid:     8307 G-vectors     FFT dimensions: (  20,  20,  54)

     Estimated max dynamical RAM per process >      12.90 MB

     Estimated total dynamical RAM >      90.31 MB

     Initial potential from superposition of free atoms

     starting charge      15.9998, renormalised to      16.0000


     %%%%%%%%%%%%%%%%%%%%%%%%%%%%%%%%%%%%%%%%%%%%%%%%%%%%%%%%%%%%%%%%%%%%%%%%
     %                                                                      %
     % You are using vdW-DF, which was implemented by the Thonhauser group. %
     % Please cite the following two papers that made this development      %
     % possible and the two reviews that describe the various versions:     %
     %                                                                      %
     %   T. Thonhauser et al., PRL 115, 136402 (2015).                      %
     %   T. Thonhauser et al., PRB 76, 125112 (2007).                       %
     %   K. Berland et al., Rep. Prog. Phys. 78, 066501 (2015).             %
     %   D.C. Langreth et al., J. Phys.: Condens. Matter 21, 084203 (2009). %
     %                                                                      %
     % If you are calculating stress with vdW-DF, please also cite:         %
     %                                                                      %
     %   R. Sabatini et al., J. Phys.: Condens. Matter 24, 424209 (2012).   %
     %                                                                      %
     %%%%%%%%%%%%%%%%%%%%%%%%%%%%%%%%%%%%%%%%%%%%%%%%%%%%%%%%%%%%%%%%%%%%%%%%

     %%%%%%%%%%%%%%%%%%%%%%%%%%%%%%%%%%%%%%%%%%%%%%%%%%%%%%%%%%%%%%%%%%%%%%%%
     %                                                                      %
     %  vdW-DF NEWS:                                                        %
     %                                                                      %
     %  * vdW-DF3 is now available. DOI: 10.1021/acs.jctc.0c00471           %
     %    use with input_dft = 'vdW-DF3-opt1' or 'vdW-DF3-opt2'             %
     %                                                                      %
     %  * Unscreened and range-separated vdW-DF hybrid functionals          %
     %    DOI: 10.1063/1.4986522 and 10.1088/1361-648X/ac2ad2               %
     %    use with input_dft = 'vdW-DF-cx0' (etc) and 'vdW-DF-ahcx'         %
     %                                                                      %
     %%%%%%%%%%%%%%%%%%%%%%%%%%%%%%%%%%%%%%%%%%%%%%%%%%%%%%%%%%%%%%%%%%%%%%%%


     Starting wfcs are   16 randomized atomic wfcs

     total cpu time spent up to now is       13.4 secs

     Self-consistent Calculation

     iteration #  1     ecut=    40.00 Ry     beta= 0.30
     Davidson diagonalization with overlap
     ethr =  1.00E-02,  avg # of iterations =  2.7

     total cpu time spent up to now is       14.7 secs

     total energy              =     -46.04727220 Ry
     estimated scf accuracy    <       0.36502128 Ry

     iteration #  2     ecut=    40.00 Ry     beta= 0.30
     Davidson diagonalization with overlap
     ethr =  2.28E-03,  avg # of iterations =  1.2

     total cpu time spent up to now is       15.6 secs

     total energy              =     -45.98117545 Ry
     estimated scf accuracy    <       0.13123715 Ry

     iteration #  3     ecut=    40.00 Ry     beta= 0.30
     Davidson diagonalization with overlap
     ethr =  8.20E-04,  avg # of iterations =  3.9

     total cpu time spent up to now is       16.8 secs

     total energy              =     -46.00437718 Ry
     estimated scf accuracy    <       0.00318987 Ry

     iteration #  4     ecut=    40.00 Ry     beta= 0.30
     Davidson diagonalization with overlap
     ethr =  1.99E-05,  avg # of iterations =  5.1

     total cpu time spent up to now is       18.2 secs

     total energy              =     -46.00302828 Ry
     estimated scf accuracy    <       0.00542973 Ry

     iteration #  5     ecut=    40.00 Ry     beta= 0.30
     Davidson diagonalization with overlap
     ethr =  1.99E-05,  avg # of iterations =  2.8

     total cpu time spent up to now is       19.3 secs

     total energy              =     -46.00393361 Ry
     estimated scf accuracy    <       0.00001158 Ry

     iteration #  6     ecut=    40.00 Ry     beta= 0.30
     Davidson diagonalization with overlap
     ethr =  7.24E-08,  avg # of iterations =  4.2

     total cpu time spent up to now is       20.4 secs

     total energy              =     -46.00393692 Ry
     estimated scf accuracy    <       0.00000119 Ry

     iteration #  7     ecut=    40.00 Ry     beta= 0.30
     Davidson diagonalization with overlap
     ethr =  7.45E-09,  avg # of iterations =  1.9

     total cpu time spent up to now is       21.3 secs

     total energy              =     -46.00393707 Ry
     estimated scf accuracy    <       0.00000040 Ry

     iteration #  8     ecut=    40.00 Ry     beta= 0.30
     Davidson diagonalization with overlap
     ethr =  2.48E-09,  avg # of iterations =  1.9

     total cpu time spent up to now is       22.2 secs

     total energy              =     -46.00393722 Ry
     estimated scf accuracy    <       0.00000003 Ry

     iteration #  9     ecut=    40.00 Ry     beta= 0.30
     Davidson diagonalization with overlap
     ethr =  1.80E-10,  avg # of iterations =  1.2

     total cpu time spent up to now is       23.0 secs

     total energy              =     -46.00393728 Ry
     estimated scf accuracy    <       0.00000001 Ry

     iteration # 10     ecut=    40.00 Ry     beta= 0.30
     Davidson diagonalization with overlap
     ethr =  8.69E-11,  avg # of iterations =  1.7

     total cpu time spent up to now is       23.8 secs

     End of self-consistent calculation

     Number of k-points >= 100: set verbosity='high' to print the bands.

     the Fermi energy is     6.7706 ev

!    total energy              =     -46.00393734 Ry
     estimated scf accuracy    <          3.0E-09 Ry
     smearing contrib. (-TS)   =      -0.00009386 Ry
     internal energy E=F+TS    =     -46.00384347 Ry

     The total energy is F=E-TS. E is the sum of the following terms:
     one-electron contribution =     -11.96542920 Ry
     hartree contribution      =      13.79878339 Ry
     xc contribution           =     -14.57354787 Ry
     ewald contribution        =     -33.26364979 Ry

     convergence has been achieved in  10 iterations

     Forces acting on atoms (cartesian axes, Ry/au):

     atom    1 type  1   force =    -0.00002451    0.00001415    0.00000000
     atom    2 type  1   force =     0.00002451   -0.00001415    0.00000000
     atom    3 type  1   force =     0.00002444   -0.00001411    0.00000000
     atom    4 type  1   force =    -0.00002444    0.00001411    0.00000000

     Total force =     0.000057     Total SCF correction =     0.000000


     Computing stress (Cartesian axis) and pressure

          total   stress  (Ry/bohr**3)                   (kbar)     P=      -11.33
  -0.00007396  -0.00000007   0.00000000          -10.88       -0.01        0.00
  -0.00000007  -0.00007404   0.00000000           -0.01      -10.89        0.00
   0.00000000   0.00000000  -0.00008315            0.00        0.00      -12.23


     Writing all to output data dir ./tmp/graphite_d_3p40000.save/
 
     init_run     :     13.15s CPU     13.33s WALL (       1 calls)
     electrons    :      9.68s CPU     10.44s WALL (       1 calls)
     forces       :      0.10s CPU      0.11s WALL (       1 calls)
     stress       :      0.22s CPU      0.26s WALL (       1 calls)

     Called by init_run:
     wfcinit      :      0.39s CPU      0.43s WALL (       1 calls)
     potinit      :     12.72s CPU     12.82s WALL (       1 calls)
     hinit0       :      0.02s CPU      0.06s WALL (       1 calls)

     Called by electrons:
     c_bands      :      8.02s CPU      8.54s WALL (      10 calls)
     sum_band     :      1.34s CPU      1.39s WALL (      10 calls)
     v_of_rho     :     12.99s CPU     13.26s WALL (      11 calls)
     newd         :      0.02s CPU      0.02s WALL (      11 calls)
     mix_rho      :      0.01s CPU      0.01s WALL (      10 calls)
     vdW_kernel   :     12.67s CPU     12.70s WALL (       1 calls)

     Called by c_bands:
     init_us_2    :      0.10s CPU      0.10s WALL (    4945 calls)
     init_us_2:cp :      0.09s CPU      0.10s WALL (    4945 calls)
     cegterg      :      7.61s CPU      7.94s WALL (    2150 calls)

     Called by *egterg:
     cdiaghg      :      0.97s CPU      1.03s WALL (    7883 calls)
     h_psi        :      5.87s CPU      6.15s WALL (    8098 calls)
     s_psi        :      0.11s CPU      0.12s WALL (    8098 calls)
     g_psi        :      0.03s CPU      0.03s WALL (    5733 calls)

     Called by h_psi:
     h_psi:calbec :      0.37s CPU      0.38s WALL (    8098 calls)
     vloc_psi     :      5.34s CPU      5.60s WALL (    8098 calls)
     add_vuspsi   :      0.12s CPU      0.13s WALL (    8098 calls)

     General routines
     calbec       :      0.54s CPU      0.56s WALL (   11323 calls)
     fft          :      0.26s CPU      0.58s WALL (     860 calls)
     ffts         :      0.03s CPU      0.03s WALL (      21 calls)
     fftw         :      5.92s CPU      6.20s WALL (  164376 calls)
     interpolate  :      0.00s CPU      0.01s WALL (      11 calls)
 
     Parallel routines
 
     PWSCF        :     23.76s CPU     25.31s WALL

 
   This run was terminated on:   3:47:20  11Jun2026            

=------------------------------------------------------------------------------=
   JOB DONE.
=------------------------------------------------------------------------------=
