
     Program PWSCF v.7.4.1 starts on 10Jul2025 at 18:21:11 

     This program is part of the open-source Quantum ESPRESSO suite
     for quantum simulation of materials; please cite
         "P. Giannozzi et al., J. Phys.:Condens. Matter 21 395502 (2009);
         "P. Giannozzi et al., J. Phys.:Condens. Matter 29 465901 (2017);
         "P. Giannozzi et al., J. Chem. Phys. 152 154105 (2020);
          URL http://www.quantum-espresso.org", 
     in publications or presentations arising from this work. More details at
     http://www.quantum-espresso.org/quote

     Parallel version (MPI & OpenMP), running on      80 processor cores
     Number of MPI processes:                80
     Threads/MPI process:                     1

     MPI processes distributed on     1 nodes
     3057880 MiB available memory on the printing compute node when the environment starts
 
     Waiting for input...
     Reading input from standard input

     Current dimensions of program PWSCF are:
     Max number of different atomic species (ntypx) = 10
     Max number of k-points (npk) =  40000
     Max angular momentum in pseudopotentials (lmaxx) =  4
     Found identity + ( -0.5000 -0.5000 -0.5000) symmetry
     This is a supercell, fractional translations are disabled
     Message from routine setup:
     using ibrav=0 with symmetry is DISCOURAGED, use correct ibrav instead
 
     K-points division:     npool     =      20
     R & G space division:  proc/nbgrp/npool/nimage =       4
     Subspace diagonalization in iterative solution of the eigenvalue problem:
     a serial algorithm will be used

 
     Parallelization info
     --------------------
     sticks:   dense  smooth     PW     G-vecs:    dense   smooth      PW
     Min         406     165     53                12389     3139     551
     Max         409     167     54                12390     3140     552
     Sum        1633     665    213                49557    12557    2205
 
     Using Slab Decomposition
 


     bravais-lattice index     =            0
     lattice parameter (alat)  =       5.4160  a.u.
     unit-cell volume          =     158.8639 (a.u.)^3
     number of atoms/cell      =            2
     number of atomic types    =            1
     number of electrons       =        32.00
     number of Kohn-Sham states=           20
     kinetic-energy cutoff     =      70.0000  Ry
     charge density cutoff     =     700.0000  Ry
     scf convergence threshold =      1.0E-08
     mixing beta               =       0.7000
     number of iterations used =            8  plain     mixing
     energy convergence thresh.=      1.0E-04
     force convergence thresh. =      1.0E-03
     press convergence thresh. =      5.0E-01
     Exchange-correlation=  SLA  PZ   NOGX NOGC
                           (   1   1   0   0   0   0   0)
     nstep                     =           50


     celldm(1)=   5.415955  celldm(2)=   0.000000  celldm(3)=   0.000000
     celldm(4)=   0.000000  celldm(5)=   0.000000  celldm(6)=   0.000000

     crystal axes: (cart. coord. in units of alat)
               a(1) = (   1.000000   0.000000   0.000000 )  
               a(2) = (   0.000000   1.000000   0.000000 )  
               a(3) = (   0.000000   0.000000   1.000000 )  

     reciprocal axes: (cart. coord. in units 2 pi/alat)
               b(1) = (  1.000000  0.000000  0.000000 )  
               b(2) = (  0.000000  1.000000  0.000000 )  
               b(3) = (  0.000000  0.000000  1.000000 )  


     PseudoPot. # 1 for Fe read from file:
     /home/m0049/m004905/PSPOT/fe_lda_v1.5.uspp.F.UPF
     MD5 check sum: 70aee299febfc78ac0df086b2000f8f7
     Pseudo is Ultrasoft + core correction, Zval = 16.0
     Generated by new atomic code, or converted to UPF format
     Using radial grid of  861 points,  6 beta functions with: 
                l(1) =   0
                l(2) =   0
                l(3) =   1
                l(4) =   1
                l(5) =   2
                l(6) =   2
     Q(r) pseudized with  8 coefficients,  rinner =    1.000   1.000   1.000
                                                       1.000   1.000

     atomic species   valence    mass     pseudopotential
     Fe               16.00    55.84500     Fe( 1.00)

     Starting magnetic structure 
     atomic species   magnetization
     Fe              0.125

     48 Sym. Ops., with inversion, found



   Cartesian axes

     site n.     atom                  positions (alat units)
         1        Fe     tau(   1) = (   0.0000000   0.0000000   0.0000000  )
         2        Fe     tau(   2) = (   0.5000000   0.5000000   0.5000000  )

     number of k points=    84  Methfessel-Paxton smearing, width (Ry)=  0.0100
                       cart. coord. in units 2pi/alat
        k(    1) = (   0.0000000   0.0000000   0.0000000), wk =   0.0005787
        k(    2) = (   0.0000000   0.0000000   0.0833333), wk =   0.0034722
        k(    3) = (   0.0000000   0.0000000   0.1666667), wk =   0.0034722
        k(    4) = (   0.0000000   0.0000000   0.2500000), wk =   0.0034722
        k(    5) = (   0.0000000   0.0000000   0.3333333), wk =   0.0034722
        k(    6) = (   0.0000000   0.0000000   0.4166667), wk =   0.0034722
        k(    7) = (   0.0000000   0.0000000  -0.5000000), wk =   0.0017361
        k(    8) = (   0.0000000   0.0833333   0.0833333), wk =   0.0069444
        k(    9) = (   0.0000000   0.0833333   0.1666667), wk =   0.0138889
        k(   10) = (   0.0000000   0.0833333   0.2500000), wk =   0.0138889
        k(   11) = (   0.0000000   0.0833333   0.3333333), wk =   0.0138889
        k(   12) = (   0.0000000   0.0833333   0.4166667), wk =   0.0138889
        k(   13) = (   0.0000000   0.0833333  -0.5000000), wk =   0.0069444
        k(   14) = (   0.0000000   0.1666667   0.1666667), wk =   0.0069444
        k(   15) = (   0.0000000   0.1666667   0.2500000), wk =   0.0138889
        k(   16) = (   0.0000000   0.1666667   0.3333333), wk =   0.0138889
        k(   17) = (   0.0000000   0.1666667   0.4166667), wk =   0.0138889
        k(   18) = (   0.0000000   0.1666667  -0.5000000), wk =   0.0069444
        k(   19) = (   0.0000000   0.2500000   0.2500000), wk =   0.0069444
        k(   20) = (   0.0000000   0.2500000   0.3333333), wk =   0.0138889
        k(   21) = (   0.0000000   0.2500000   0.4166667), wk =   0.0138889
        k(   22) = (   0.0000000   0.2500000  -0.5000000), wk =   0.0069444
        k(   23) = (   0.0000000   0.3333333   0.3333333), wk =   0.0069444
        k(   24) = (   0.0000000   0.3333333   0.4166667), wk =   0.0138889
        k(   25) = (   0.0000000   0.3333333  -0.5000000), wk =   0.0069444
        k(   26) = (   0.0000000   0.4166667   0.4166667), wk =   0.0069444
        k(   27) = (   0.0000000   0.4166667  -0.5000000), wk =   0.0069444
        k(   28) = (   0.0000000  -0.5000000  -0.5000000), wk =   0.0017361
        k(   29) = (   0.0833333   0.0833333   0.0833333), wk =   0.0046296
        k(   30) = (   0.0833333   0.0833333   0.1666667), wk =   0.0138889
        k(   31) = (   0.0833333   0.0833333   0.2500000), wk =   0.0138889
        k(   32) = (   0.0833333   0.0833333   0.3333333), wk =   0.0138889
        k(   33) = (   0.0833333   0.0833333   0.4166667), wk =   0.0138889
        k(   34) = (   0.0833333   0.0833333  -0.5000000), wk =   0.0069444
        k(   35) = (   0.0833333   0.1666667   0.1666667), wk =   0.0138889
        k(   36) = (   0.0833333   0.1666667   0.2500000), wk =   0.0277778
        k(   37) = (   0.0833333   0.1666667   0.3333333), wk =   0.0277778
        k(   38) = (   0.0833333   0.1666667   0.4166667), wk =   0.0277778
        k(   39) = (   0.0833333   0.1666667  -0.5000000), wk =   0.0138889
        k(   40) = (   0.0833333   0.2500000   0.2500000), wk =   0.0138889
        k(   41) = (   0.0833333   0.2500000   0.3333333), wk =   0.0277778
        k(   42) = (   0.0833333   0.2500000   0.4166667), wk =   0.0277778
        k(   43) = (   0.0833333   0.2500000  -0.5000000), wk =   0.0138889
        k(   44) = (   0.0833333   0.3333333   0.3333333), wk =   0.0138889
        k(   45) = (   0.0833333   0.3333333   0.4166667), wk =   0.0277778
        k(   46) = (   0.0833333   0.3333333  -0.5000000), wk =   0.0138889
        k(   47) = (   0.0833333   0.4166667   0.4166667), wk =   0.0138889
        k(   48) = (   0.0833333   0.4166667  -0.5000000), wk =   0.0138889
        k(   49) = (   0.0833333  -0.5000000  -0.5000000), wk =   0.0034722
        k(   50) = (   0.1666667   0.1666667   0.1666667), wk =   0.0046296
        k(   51) = (   0.1666667   0.1666667   0.2500000), wk =   0.0138889
        k(   52) = (   0.1666667   0.1666667   0.3333333), wk =   0.0138889
        k(   53) = (   0.1666667   0.1666667   0.4166667), wk =   0.0138889
        k(   54) = (   0.1666667   0.1666667  -0.5000000), wk =   0.0069444
        k(   55) = (   0.1666667   0.2500000   0.2500000), wk =   0.0138889
        k(   56) = (   0.1666667   0.2500000   0.3333333), wk =   0.0277778
        k(   57) = (   0.1666667   0.2500000   0.4166667), wk =   0.0277778
        k(   58) = (   0.1666667   0.2500000  -0.5000000), wk =   0.0138889
        k(   59) = (   0.1666667   0.3333333   0.3333333), wk =   0.0138889
        k(   60) = (   0.1666667   0.3333333   0.4166667), wk =   0.0277778
        k(   61) = (   0.1666667   0.3333333  -0.5000000), wk =   0.0138889
        k(   62) = (   0.1666667   0.4166667   0.4166667), wk =   0.0138889
        k(   63) = (   0.1666667   0.4166667  -0.5000000), wk =   0.0138889
        k(   64) = (   0.1666667  -0.5000000  -0.5000000), wk =   0.0034722
        k(   65) = (   0.2500000   0.2500000   0.2500000), wk =   0.0046296
        k(   66) = (   0.2500000   0.2500000   0.3333333), wk =   0.0138889
        k(   67) = (   0.2500000   0.2500000   0.4166667), wk =   0.0138889
        k(   68) = (   0.2500000   0.2500000  -0.5000000), wk =   0.0069444
        k(   69) = (   0.2500000   0.3333333   0.3333333), wk =   0.0138889
        k(   70) = (   0.2500000   0.3333333   0.4166667), wk =   0.0277778
        k(   71) = (   0.2500000   0.3333333  -0.5000000), wk =   0.0138889
        k(   72) = (   0.2500000   0.4166667   0.4166667), wk =   0.0138889
        k(   73) = (   0.2500000   0.4166667  -0.5000000), wk =   0.0138889
        k(   74) = (   0.2500000  -0.5000000  -0.5000000), wk =   0.0034722
        k(   75) = (   0.3333333   0.3333333   0.3333333), wk =   0.0046296
        k(   76) = (   0.3333333   0.3333333   0.4166667), wk =   0.0138889
        k(   77) = (   0.3333333   0.3333333  -0.5000000), wk =   0.0069444
        k(   78) = (   0.3333333   0.4166667   0.4166667), wk =   0.0138889
        k(   79) = (   0.3333333   0.4166667  -0.5000000), wk =   0.0138889
        k(   80) = (   0.3333333  -0.5000000  -0.5000000), wk =   0.0034722
        k(   81) = (   0.4166667   0.4166667   0.4166667), wk =   0.0046296
        k(   82) = (   0.4166667   0.4166667  -0.5000000), wk =   0.0069444
        k(   83) = (   0.4166667  -0.5000000  -0.5000000), wk =   0.0034722
        k(   84) = (  -0.5000000  -0.5000000  -0.5000000), wk =   0.0005787

     Dense  grid:    49557 G-vectors     FFT dimensions: (  45,  45,  45)

     Smooth grid:    12557 G-vectors     FFT dimensions: (  30,  30,  30)

     Estimated max dynamical RAM per process >      19.26 MB

     Estimated total dynamical RAM >       1.06 GB

     Check: negative core charge=   -0.000053
     Generating pointlists ...
     new r_m :   0.3572 (alat units)  1.9348 (a.u.) for type    1

     Initial potential from superposition of free atoms

     starting charge      30.0000, renormalised to      32.0000
     Starting wfcs are   26 randomized atomic wfcs

     total cpu time spent up to now is        2.9 secs

     Self-consistent Calculation

     iteration #  1     ecut=    70.00 Ry     beta= 0.70
     Davidson diagonalization with overlap
     ethr =  1.00E-02,  avg # of iterations =  2.3

     total cpu time spent up to now is        3.1 secs

     total energy              =    -498.06477627 Ry
     estimated scf accuracy    <       4.58075433 Ry

     total magnetization       =     3.20 Bohr mag/cell
     absolute magnetization    =     3.21 Bohr mag/cell

     iteration #  2     ecut=    70.00 Ry     beta= 0.70
     Davidson diagonalization with overlap
     ethr =  1.00E-02,  avg # of iterations =  3.1

     total cpu time spent up to now is        4.7 secs

     total energy              =    -498.38582036 Ry
     estimated scf accuracy    <      12.93961078 Ry

     total magnetization       =     4.00 Bohr mag/cell
     absolute magnetization    =     4.01 Bohr mag/cell

     iteration #  3     ecut=    70.00 Ry     beta= 0.70
     Davidson diagonalization with overlap
     ethr =  1.00E-02,  avg # of iterations =  2.6

     total cpu time spent up to now is        5.2 secs

     total energy              =    -500.59335573 Ry
     estimated scf accuracy    <       0.01298313 Ry

     total magnetization       =     4.04 Bohr mag/cell
     absolute magnetization    =     4.11 Bohr mag/cell

     iteration #  4     ecut=    70.00 Ry     beta= 0.70
     Davidson diagonalization with overlap
     ethr =  4.06E-05,  avg # of iterations =  3.1

     total cpu time spent up to now is        5.3 secs

     total energy              =    -500.59809820 Ry
     estimated scf accuracy    <       0.01879231 Ry

     total magnetization       =     4.10 Bohr mag/cell
     absolute magnetization    =     4.18 Bohr mag/cell

     iteration #  5     ecut=    70.00 Ry     beta= 0.70
     Davidson diagonalization with overlap
     ethr =  4.06E-05,  avg # of iterations =  2.0

     total cpu time spent up to now is        5.8 secs

     total energy              =    -500.59381302 Ry
     estimated scf accuracy    <       0.13998183 Ry

     total magnetization       =     4.12 Bohr mag/cell
     absolute magnetization    =     4.20 Bohr mag/cell

     iteration #  6     ecut=    70.00 Ry     beta= 0.70
     Davidson diagonalization with overlap
     ethr =  4.06E-05,  avg # of iterations =  3.2

     total cpu time spent up to now is        6.0 secs

     total energy              =    -500.60728064 Ry
     estimated scf accuracy    <       0.05798010 Ry

     total magnetization       =     4.49 Bohr mag/cell
     absolute magnetization    =     4.59 Bohr mag/cell

     iteration #  7     ecut=    70.00 Ry     beta= 0.70
     Davidson diagonalization with overlap
     ethr =  4.06E-05,  avg # of iterations =  1.5

     total cpu time spent up to now is        6.1 secs

     total energy              =    -500.60268853 Ry
     estimated scf accuracy    <       0.02866396 Ry

     total magnetization       =     4.51 Bohr mag/cell
     absolute magnetization    =     4.62 Bohr mag/cell

     iteration #  8     ecut=    70.00 Ry     beta= 0.70
     Davidson diagonalization with overlap
     ethr =  4.06E-05,  avg # of iterations =  2.2

     total cpu time spent up to now is        6.2 secs

     total energy              =    -500.60276024 Ry
     estimated scf accuracy    <       0.00489671 Ry

     total magnetization       =     4.54 Bohr mag/cell
     absolute magnetization    =     4.67 Bohr mag/cell

     iteration #  9     ecut=    70.00 Ry     beta= 0.70
     Davidson diagonalization with overlap
     ethr =  1.53E-05,  avg # of iterations =  2.4

     total cpu time spent up to now is        6.3 secs

     total energy              =    -500.60377836 Ry
     estimated scf accuracy    <       0.00003045 Ry

     total magnetization       =     4.52 Bohr mag/cell
     absolute magnetization    =     4.66 Bohr mag/cell

     iteration # 10     ecut=    70.00 Ry     beta= 0.70
     Davidson diagonalization with overlap
     ethr =  9.52E-08,  avg # of iterations =  3.3

     total cpu time spent up to now is        6.5 secs

     total energy              =    -500.60377870 Ry
     estimated scf accuracy    <       0.00004745 Ry

     total magnetization       =     4.52 Bohr mag/cell
     absolute magnetization    =     4.67 Bohr mag/cell

     iteration # 11     ecut=    70.00 Ry     beta= 0.70
     Davidson diagonalization with overlap
     ethr =  9.52E-08,  avg # of iterations =  2.2

     total cpu time spent up to now is        6.6 secs

     total energy              =    -500.60378488 Ry
     estimated scf accuracy    <       0.00000070 Ry

     total magnetization       =     4.52 Bohr mag/cell
     absolute magnetization    =     4.67 Bohr mag/cell

     iteration # 12     ecut=    70.00 Ry     beta= 0.70
     Davidson diagonalization with overlap
     ethr =  2.20E-09,  avg # of iterations =  3.4

     total cpu time spent up to now is        6.8 secs

     total energy              =    -500.60378523 Ry
     estimated scf accuracy    <       0.00000022 Ry

     total magnetization       =     4.52 Bohr mag/cell
     absolute magnetization    =     4.67 Bohr mag/cell

     iteration # 13     ecut=    70.00 Ry     beta= 0.70
     Davidson diagonalization with overlap
     ethr =  6.78E-10,  avg # of iterations =  1.0

     total cpu time spent up to now is        6.9 secs

     total energy              =    -500.60378519 Ry
     estimated scf accuracy    <       0.00000012 Ry

     total magnetization       =     4.52 Bohr mag/cell
     absolute magnetization    =     4.67 Bohr mag/cell

     iteration # 14     ecut=    70.00 Ry     beta= 0.70
     Davidson diagonalization with overlap
     ethr =  3.72E-10,  avg # of iterations =  2.0
 
     Magnetic moment per site  (integrated on atomic sphere of radius R)
     atom   1 (R=0.357)  charge= 14.4303  magn=  2.2828
     atom   2 (R=0.357)  charge= 14.4305  magn=  2.2828

     total cpu time spent up to now is        7.0 secs

     End of self-consistent calculation

     Number of k-points >= 100: set verbosity='high' to print the bands.

     the Fermi energy is    17.0371 ev

!    total energy              =    -500.60378521 Ry
     estimated scf accuracy    <          4.1E-09 Ry
     smearing contrib. (-TS)   =      -0.00010872 Ry
     internal energy E=F+TS    =    -500.60367648 Ry

     The total energy is F=E-TS. E is the sum of the following terms:
     one-electron contribution =    -233.82967108 Ry
     hartree contribution      =     134.86683348 Ry
     xc contribution           =     -57.60409910 Ry
     ewald contribution        =    -344.03673978 Ry

     total magnetization       =     4.52 Bohr mag/cell
     absolute magnetization    =     4.67 Bohr mag/cell

     convergence has been achieved in  14 iterations

     Forces acting on atoms (cartesian axes, Ry/au):

     atom    1 type  1   force =     0.00000000    0.00000000    0.00000000
     atom    2 type  1   force =     0.00000000   -0.00000000    0.00000000

     Total force =     0.000000     Total SCF correction =     0.000000


     Computing stress (Cartesian axis) and pressure

          total   stress  (Ry/bohr**3)                   (kbar)     P=     -220.15
  -0.00149657   0.00000000   0.00000000         -220.15        0.00        0.00
   0.00000000  -0.00149657   0.00000000            0.00     -220.15        0.00
   0.00000000   0.00000000  -0.00149657            0.00        0.00     -220.15


     BFGS Geometry Optimization
     Energy error            =      2.8E-02 Ry
     Gradient error          =      6.6E-32 Ry/Bohr
     Cell gradient error     =      2.2E+02 kbar

     number of scf cycles    =   1
     number of bfgs steps    =   0

     enthalpy           new  =    -500.6037852059 Ry

     new trust radius        =       0.0943150391 bohr
     new conv_thr            =       0.0000000100 Ry

     new unit-cell volume =    141.69133 a.u.^3 (    20.99649 Ang^3 )
     density =      8.83317 g/cm^3

CELL_PARAMETERS (angstrom)
   2.758770431   0.000000000   0.000000000
   0.000000000   2.758770431   0.000000000
   0.000000000   0.000000000   2.758770431

ATOMIC_POSITIONS (crystal)
Fe               0.0000000000        0.0000000000        0.0000000000
Fe               0.5000000000        0.5000000000        0.5000000000



     Writing config-only to output data dir ./out/Fe_bcc_fm.save/ :
     XML data file
     NEW-OLD atomic charge density approx. for the potential
     New effective cutoffs (rho, wfc):  755.33   75.54

     Check: negative core charge=   -0.000032
     Generating pointlists ...
     new r_m :   0.3439 (alat units)  1.8624 (a.u.) for type    1

     total cpu time spent up to now is        7.8 secs

     Self-consistent Calculation

     iteration #  1     ecut=    70.00 Ry     beta= 0.70
     Davidson diagonalization with overlap
     ethr =  1.00E-06,  avg # of iterations =  4.9

     total cpu time spent up to now is        8.0 secs

     total energy              =    -500.60798496 Ry
     estimated scf accuracy    <       0.02069482 Ry

     total magnetization       =     4.19 Bohr mag/cell
     absolute magnetization    =     4.33 Bohr mag/cell

     iteration #  2     ecut=    70.00 Ry     beta= 0.70
     Davidson diagonalization with overlap
     ethr =  6.47E-05,  avg # of iterations =  3.1

     total cpu time spent up to now is        8.2 secs

     total energy              =    -500.60851091 Ry
     estimated scf accuracy    <       0.05658790 Ry

     total magnetization       =     4.32 Bohr mag/cell
     absolute magnetization    =     4.43 Bohr mag/cell

     iteration #  3     ecut=    70.00 Ry     beta= 0.70
     Davidson diagonalization with overlap
     ethr =  6.47E-05,  avg # of iterations =  2.6

     total cpu time spent up to now is        8.3 secs

     total energy              =    -500.61849886 Ry
     estimated scf accuracy    <       0.00091681 Ry

     total magnetization       =     4.17 Bohr mag/cell
     absolute magnetization    =     4.30 Bohr mag/cell

     iteration #  4     ecut=    70.00 Ry     beta= 0.70
     Davidson diagonalization with overlap
     ethr =  2.87E-06,  avg # of iterations =  2.5

     total cpu time spent up to now is        8.5 secs

     total energy              =    -500.61812401 Ry
     estimated scf accuracy    <       0.01743152 Ry

     total magnetization       =     4.15 Bohr mag/cell
     absolute magnetization    =     4.27 Bohr mag/cell

     iteration #  5     ecut=    70.00 Ry     beta= 0.70
     Davidson diagonalization with overlap
     ethr =  2.87E-06,  avg # of iterations =  2.3

     total cpu time spent up to now is        8.6 secs

     total energy              =    -500.61893270 Ry
     estimated scf accuracy    <       0.00016925 Ry

     total magnetization       =     4.11 Bohr mag/cell
     absolute magnetization    =     4.22 Bohr mag/cell

     iteration #  6     ecut=    70.00 Ry     beta= 0.70
     Davidson diagonalization with overlap
     ethr =  5.29E-07,  avg # of iterations =  2.3

     total cpu time spent up to now is        8.7 secs

     total energy              =    -500.61897418 Ry
     estimated scf accuracy    <       0.00000928 Ry

     total magnetization       =     4.11 Bohr mag/cell
     absolute magnetization    =     4.22 Bohr mag/cell

     iteration #  7     ecut=    70.00 Ry     beta= 0.70
     Davidson diagonalization with overlap
     ethr =  2.90E-08,  avg # of iterations =  1.6

     total cpu time spent up to now is        8.9 secs

     total energy              =    -500.61897481 Ry
     estimated scf accuracy    <       0.00000154 Ry

     total magnetization       =     4.11 Bohr mag/cell
     absolute magnetization    =     4.22 Bohr mag/cell

     iteration #  8     ecut=    70.00 Ry     beta= 0.70
     Davidson diagonalization with overlap
     ethr =  4.80E-09,  avg # of iterations =  2.2

     total cpu time spent up to now is        9.0 secs

     total energy              =    -500.61897522 Ry
     estimated scf accuracy    <       0.00000012 Ry

     total magnetization       =     4.11 Bohr mag/cell
     absolute magnetization    =     4.22 Bohr mag/cell

     iteration #  9     ecut=    70.00 Ry     beta= 0.70
     Davidson diagonalization with overlap
     ethr =  3.74E-10,  avg # of iterations =  1.6

     total cpu time spent up to now is        9.1 secs

     total energy              =    -500.61897523 Ry
     estimated scf accuracy    <       0.00000002 Ry

     total magnetization       =     4.11 Bohr mag/cell
     absolute magnetization    =     4.22 Bohr mag/cell

     iteration # 10     ecut=    70.00 Ry     beta= 0.70
     Davidson diagonalization with overlap
     ethr =  5.47E-11,  avg # of iterations =  2.1
 
     Magnetic moment per site  (integrated on atomic sphere of radius R)
     atom   1 (R=0.344)  charge= 14.3343  magn=  2.0614
     atom   2 (R=0.344)  charge= 14.3346  magn=  2.0613

     total cpu time spent up to now is        9.2 secs

     End of self-consistent calculation

     Number of k-points >= 100: set verbosity='high' to print the bands.

     the Fermi energy is    19.7168 ev

!    total energy              =    -500.61897523 Ry
     estimated scf accuracy    <          1.8E-09 Ry
     smearing contrib. (-TS)   =       0.00014782 Ry
     internal energy E=F+TS    =    -500.61912305 Ry

     The total energy is F=E-TS. E is the sum of the following terms:
     one-electron contribution =    -212.58553953 Ry
     hartree contribution      =     127.13041331 Ry
     xc contribution           =     -57.75502757 Ry
     ewald contribution        =    -357.40896926 Ry

     total magnetization       =     4.11 Bohr mag/cell
     absolute magnetization    =     4.22 Bohr mag/cell

     convergence has been achieved in  10 iterations

     Forces acting on atoms (cartesian axes, Ry/au):

     atom    1 type  1   force =     0.00000000    0.00000000    0.00000000
     atom    2 type  1   force =     0.00000000    0.00000000    0.00000000

     Total force =     0.000000     Total SCF correction =     0.000000


     Computing stress (Cartesian axis) and pressure

          total   stress  (Ry/bohr**3)                   (kbar)     P=      -13.49
  -0.00009170   0.00000000   0.00000000          -13.49        0.00        0.00
   0.00000000  -0.00009170   0.00000000            0.00      -13.49        0.00
   0.00000000   0.00000000  -0.00009170            0.00        0.00      -13.49

     Energy error            =      1.5E-02 Ry
     Gradient error          =      0.0E+00 Ry/Bohr
     Cell gradient error     =      1.3E+01 kbar

     number of scf cycles    =   2
     number of bfgs steps    =   1

     enthalpy           old  =    -500.6037852059 Ry
     enthalpy           new  =    -500.6189752295 Ry

     CASE: enthalpy          _new < enthalpy          _old

     new trust radius        =       0.0055699956 bohr
     new conv_thr            =            1.0E-10 Ry

     new unit-cell volume =    140.69913 a.u.^3 (    20.84946 Ang^3 )
     density =      8.89546 g/cm^3

CELL_PARAMETERS (angstrom)
   2.752315839   0.000000000   0.000000000
   0.000000000   2.752315839   0.000000000
   0.000000000   0.000000000   2.752315839

ATOMIC_POSITIONS (crystal)
Fe               0.0000000000        0.0000000000        0.0000000000
Fe               0.5000000000        0.5000000000        0.5000000000



     Writing config-only to output data dir ./out/Fe_bcc_fm.save/ :
     XML data file
     NEW-OLD atomic charge density approx. for the potential
     New effective cutoffs (rho, wfc):  758.87   75.90

     Check: negative core charge=   -0.000030
     Generating pointlists ...

     total cpu time spent up to now is        9.4 secs

     Self-consistent Calculation

     iteration #  1     ecut=    70.00 Ry     beta= 0.70
     Davidson diagonalization with overlap
     ethr =  1.00E-06,  avg # of iterations =  3.0

     total cpu time spent up to now is        9.5 secs

     total energy              =    -500.61897900 Ry
     estimated scf accuracy    <       0.00005668 Ry

     total magnetization       =     4.09 Bohr mag/cell
     absolute magnetization    =     4.20 Bohr mag/cell

     iteration #  2     ecut=    70.00 Ry     beta= 0.70
     Davidson diagonalization with overlap
     ethr =  1.77E-07,  avg # of iterations =  3.1

     total cpu time spent up to now is        9.7 secs

     total energy              =    -500.61897886 Ry
     estimated scf accuracy    <       0.00015587 Ry

     total magnetization       =     4.10 Bohr mag/cell
     absolute magnetization    =     4.20 Bohr mag/cell

     iteration #  3     ecut=    70.00 Ry     beta= 0.70
     Davidson diagonalization with overlap
     ethr =  1.77E-07,  avg # of iterations =  2.8

     total cpu time spent up to now is        9.8 secs

     total energy              =    -500.61899928 Ry
     estimated scf accuracy    <       0.00017593 Ry

     total magnetization       =     4.09 Bohr mag/cell
     absolute magnetization    =     4.20 Bohr mag/cell

     iteration #  4     ecut=    70.00 Ry     beta= 0.70
     Davidson diagonalization with overlap
     ethr =  1.77E-07,  avg # of iterations =  1.2

     total cpu time spent up to now is        9.9 secs

     total energy              =    -500.61900844 Ry
     estimated scf accuracy    <       0.00000139 Ry

     total magnetization       =     4.09 Bohr mag/cell
     absolute magnetization    =     4.20 Bohr mag/cell

     iteration #  5     ecut=    70.00 Ry     beta= 0.70
     Davidson diagonalization with overlap
     ethr =  4.33E-09,  avg # of iterations =  2.2

     total cpu time spent up to now is       10.1 secs

     total energy              =    -500.61900876 Ry
     estimated scf accuracy    <       0.00000020 Ry

     total magnetization       =     4.09 Bohr mag/cell
     absolute magnetization    =     4.20 Bohr mag/cell

     iteration #  6     ecut=    70.00 Ry     beta= 0.70
     Davidson diagonalization with overlap
     ethr =  6.39E-10,  avg # of iterations =  1.3

     total cpu time spent up to now is       10.2 secs

     total energy              =    -500.61900879 Ry
     estimated scf accuracy    <          4.1E-09 Ry

     total magnetization       =     4.09 Bohr mag/cell
     absolute magnetization    =     4.20 Bohr mag/cell

     iteration #  7     ecut=    70.00 Ry     beta= 0.70
     Davidson diagonalization with overlap
     ethr =  1.27E-11,  avg # of iterations =  2.5

     total cpu time spent up to now is       10.3 secs

     total energy              =    -500.61900879 Ry
     estimated scf accuracy    <          5.7E-09 Ry

     total magnetization       =     4.09 Bohr mag/cell
     absolute magnetization    =     4.20 Bohr mag/cell

     iteration #  8     ecut=    70.00 Ry     beta= 0.70
     Davidson diagonalization with overlap
     ethr =  1.27E-11,  avg # of iterations =  1.1

     total cpu time spent up to now is       10.4 secs

     total energy              =    -500.61900879 Ry
     estimated scf accuracy    <          4.8E-10 Ry

     total magnetization       =     4.09 Bohr mag/cell
     absolute magnetization    =     4.20 Bohr mag/cell

     iteration #  9     ecut=    70.00 Ry     beta= 0.70
     Davidson diagonalization with overlap
     ethr =  1.50E-12,  avg # of iterations =  1.6
 
     Magnetic moment per site  (integrated on atomic sphere of radius R)
     atom   1 (R=0.344)  charge= 14.3431  magn=  2.0521
     atom   2 (R=0.344)  charge= 14.3433  magn=  2.0521

     total cpu time spent up to now is       10.6 secs

     End of self-consistent calculation

     Number of k-points >= 100: set verbosity='high' to print the bands.

     the Fermi energy is    19.8911 ev

!    total energy              =    -500.61900879 Ry
     estimated scf accuracy    <          1.0E-11 Ry
     smearing contrib. (-TS)   =       0.00017240 Ry
     internal energy E=F+TS    =    -500.61918119 Ry

     The total energy is F=E-TS. E is the sum of the following terms:
     one-electron contribution =    -211.26691487 Ry
     hartree contribution      =     126.66157043 Ry
     xc contribution           =     -57.76669009 Ry
     ewald contribution        =    -358.24714666 Ry

     total magnetization       =     4.09 Bohr mag/cell
     absolute magnetization    =     4.20 Bohr mag/cell

     convergence has been achieved in   9 iterations

     Forces acting on atoms (cartesian axes, Ry/au):

     atom    1 type  1   force =     0.00000000    0.00000000    0.00000000
     atom    2 type  1   force =     0.00000000   -0.00000000    0.00000000

     Total force =     0.000000     Total SCF correction =     0.000000


     Computing stress (Cartesian axis) and pressure

          total   stress  (Ry/bohr**3)                   (kbar)     P=        3.62
   0.00002459   0.00000000   0.00000000            3.62        0.00        0.00
   0.00000000   0.00002459   0.00000000            0.00        3.62        0.00
   0.00000000   0.00000000   0.00002459            0.00        0.00        3.62

     Energy error            =      3.4E-05 Ry
     Gradient error          =      2.7E-30 Ry/Bohr
     Cell gradient error     =      3.6E+00 kbar

     number of scf cycles    =   3
     number of bfgs steps    =   2

     enthalpy           old  =    -500.6189752295 Ry
     enthalpy           new  =    -500.6190087871 Ry

     CASE: enthalpy          _new < enthalpy          _old

     new trust radius        =       0.0011719984 bohr
     new conv_thr            =            1.0E-10 Ry

     new unit-cell volume =    140.90776 a.u.^3 (    20.88038 Ang^3 )
     density =      8.88229 g/cm^3

CELL_PARAMETERS (angstrom)
   2.753675560   0.000000000   0.000000000
   0.000000000   2.753675560   0.000000000
   0.000000000   0.000000000   2.753675560

ATOMIC_POSITIONS (crystal)
Fe               0.0000000000        0.0000000000        0.0000000000
Fe               0.5000000000        0.5000000000        0.5000000000



     Writing config-only to output data dir ./out/Fe_bcc_fm.save/ :
     XML data file
     NEW-OLD atomic charge density approx. for the potential
     New effective cutoffs (rho, wfc):  758.12   75.82

     Check: negative core charge=   -0.000030
     Generating pointlists ...

     total cpu time spent up to now is       10.7 secs

     Self-consistent Calculation

     iteration #  1     ecut=    70.00 Ry     beta= 0.70
     Davidson diagonalization with overlap
     ethr =  1.00E-06,  avg # of iterations =  2.0

     Threshold (ethr) on eigenvalues was too large:
     Diagonalizing with lowered threshold

     Davidson diagonalization with overlap
     ethr =  7.60E-09,  avg # of iterations =  1.0

     total cpu time spent up to now is       10.9 secs

     total energy              =    -500.61900982 Ry
     estimated scf accuracy    <       0.00000251 Ry

     total magnetization       =     4.09 Bohr mag/cell
     absolute magnetization    =     4.20 Bohr mag/cell

     iteration #  2     ecut=    70.00 Ry     beta= 0.70
     Davidson diagonalization with overlap
     ethr =  7.86E-09,  avg # of iterations =  3.2

     total cpu time spent up to now is       11.1 secs

     total energy              =    -500.61900984 Ry
     estimated scf accuracy    <       0.00000705 Ry

     total magnetization       =     4.09 Bohr mag/cell
     absolute magnetization    =     4.20 Bohr mag/cell

     iteration #  3     ecut=    70.00 Ry     beta= 0.70
     Davidson diagonalization with overlap
     ethr =  7.86E-09,  avg # of iterations =  2.8

     total cpu time spent up to now is       11.2 secs

     total energy              =    -500.61901080 Ry
     estimated scf accuracy    <       0.00000662 Ry

     total magnetization       =     4.09 Bohr mag/cell
     absolute magnetization    =     4.20 Bohr mag/cell

     iteration #  4     ecut=    70.00 Ry     beta= 0.70
     Davidson diagonalization with overlap
     ethr =  7.86E-09,  avg # of iterations =  1.1

     total cpu time spent up to now is       11.3 secs

     total energy              =    -500.61901115 Ry
     estimated scf accuracy    <       0.00000005 Ry

     total magnetization       =     4.09 Bohr mag/cell
     absolute magnetization    =     4.20 Bohr mag/cell

     iteration #  5     ecut=    70.00 Ry     beta= 0.70
     Davidson diagonalization with overlap
     ethr =  1.72E-10,  avg # of iterations =  2.2

     total cpu time spent up to now is       11.4 secs

     total energy              =    -500.61901116 Ry
     estimated scf accuracy    <          9.2E-09 Ry

     total magnetization       =     4.09 Bohr mag/cell
     absolute magnetization    =     4.20 Bohr mag/cell

     iteration #  6     ecut=    70.00 Ry     beta= 0.70
     Davidson diagonalization with overlap
     ethr =  2.89E-11,  avg # of iterations =  1.5

     total cpu time spent up to now is       11.5 secs

     total energy              =    -500.61901116 Ry
     estimated scf accuracy    <          2.1E-10 Ry

     total magnetization       =     4.09 Bohr mag/cell
     absolute magnetization    =     4.20 Bohr mag/cell

     iteration #  7     ecut=    70.00 Ry     beta= 0.70
     Davidson diagonalization with overlap
     ethr =  6.52E-13,  avg # of iterations =  2.4

     total cpu time spent up to now is       11.7 secs

     total energy              =    -500.61901116 Ry
     estimated scf accuracy    <          2.9E-10 Ry

     total magnetization       =     4.09 Bohr mag/cell
     absolute magnetization    =     4.20 Bohr mag/cell

     iteration #  8     ecut=    70.00 Ry     beta= 0.70
     Davidson diagonalization with overlap
     ethr =  6.52E-13,  avg # of iterations =  1.2
 
     Magnetic moment per site  (integrated on atomic sphere of radius R)
     atom   1 (R=0.344)  charge= 14.3413  magn=  2.0540
     atom   2 (R=0.344)  charge= 14.3414  magn=  2.0539

     total cpu time spent up to now is       11.8 secs

     End of self-consistent calculation

     Number of k-points >= 100: set verbosity='high' to print the bands.

     the Fermi energy is    19.8542 ev

!    total energy              =    -500.61901116 Ry
     estimated scf accuracy    <          9.8E-12 Ry
     smearing contrib. (-TS)   =       0.00016760 Ry
     internal energy E=F+TS    =    -500.61917877 Ry

     The total energy is F=E-TS. E is the sum of the following terms:
     one-electron contribution =    -211.54498609 Ry
     hartree contribution      =     126.76024019 Ry
     xc contribution           =     -57.76418283 Ry
     ewald contribution        =    -358.07025004 Ry

     total magnetization       =     4.09 Bohr mag/cell
     absolute magnetization    =     4.20 Bohr mag/cell

     convergence has been achieved in   8 iterations

     Forces acting on atoms (cartesian axes, Ry/au):

     atom    1 type  1   force =     0.00000000    0.00000000    0.00000000
     atom    2 type  1   force =     0.00000000    0.00000000   -0.00000000

     Total force =     0.000000     Total SCF correction =     0.000000


     Computing stress (Cartesian axis) and pressure

          total   stress  (Ry/bohr**3)                   (kbar)     P=       -0.25
  -0.00000172   0.00000000   0.00000000           -0.25        0.00        0.00
   0.00000000  -0.00000172   0.00000000            0.00       -0.25        0.00
   0.00000000   0.00000000  -0.00000172            0.00        0.00       -0.25

     Energy error            =      2.4E-06 Ry
     Gradient error          =      1.1E-30 Ry/Bohr
     Cell gradient error     =      2.5E-01 kbar

     bfgs converged in   4 scf cycles and   3 bfgs steps
     (criteria: energy <  1.0E-04 Ry, force <  1.0E-03 Ry/Bohr, cell <  5.0E-01 kbar)

     End of BFGS Geometry Optimization

     Final enthalpy           =    -500.6190111616 Ry

     File ./out/Fe_bcc_fm.bfgs deleted, as requested
Begin final coordinates
     new unit-cell volume =    140.90776 a.u.^3 (    20.88038 Ang^3 )
     density =      8.88229 g/cm^3

CELL_PARAMETERS (angstrom)
   2.753675560   0.000000000   0.000000000
   0.000000000   2.753675560   0.000000000
   0.000000000   0.000000000   2.753675560

ATOMIC_POSITIONS (crystal)
Fe               0.0000000000        0.0000000000        0.0000000000
Fe               0.5000000000        0.5000000000        0.5000000000
End final coordinates



     Writing config-only to output data dir ./out/Fe_bcc_fm.save/ :
     XML data file

     Final scf calculation at the relaxed structure.
     The G-vectors are recalculated for the final unit cell
     Results may differ from those at the preceding step.
 
     Parallelization info
     --------------------
     sticks:   dense  smooth     PW     G-vecs:    dense   smooth      PW
     Min         372     148     46                10966     2768     482
     Max         373     149     47                10968     2771     485
     Sum        1489     593    185                43867    11075    1935
 
     Using Slab Decomposition
 


     bravais-lattice index     =            0
     lattice parameter (alat)  =       5.4160  a.u.
     unit-cell volume          =     140.9078 (a.u.)^3
     number of atoms/cell      =            2
     number of atomic types    =            1
     number of electrons       =        32.00
     number of Kohn-Sham states=           20
     kinetic-energy cutoff     =      70.0000  Ry
     charge density cutoff     =     700.0000  Ry
     scf convergence threshold =      1.0E-10
     mixing beta               =       0.7000
     number of iterations used =            8  plain     mixing
     press convergence thresh. =      5.0E-01
     Exchange-correlation=  SLA  PZ   NOGX NOGC
                           (   1   1   0   0   0   0   0)

     celldm(1)=   5.415955  celldm(2)=   0.000000  celldm(3)=   0.000000
     celldm(4)=   0.000000  celldm(5)=   0.000000  celldm(6)=   0.000000

     crystal axes: (cart. coord. in units of alat)
               a(1) = (   0.960808   0.000000   0.000000 )  
               a(2) = (   0.000000   0.960808   0.000000 )  
               a(3) = (   0.000000   0.000000   0.960808 )  

     reciprocal axes: (cart. coord. in units 2 pi/alat)
               b(1) = (  1.040791  0.000000  0.000000 )  
               b(2) = (  0.000000  1.040791  0.000000 )  
               b(3) = (  0.000000  0.000000  1.040791 )  


     PseudoPot. # 1 for Fe read from file:
     /home/m0049/m004905/PSPOT/fe_lda_v1.5.uspp.F.UPF
     MD5 check sum: 70aee299febfc78ac0df086b2000f8f7
     Pseudo is Ultrasoft + core correction, Zval = 16.0
     Generated by new atomic code, or converted to UPF format
     Using radial grid of  861 points,  6 beta functions with: 
                l(1) =   0
                l(2) =   0
                l(3) =   1
                l(4) =   1
                l(5) =   2
                l(6) =   2
     Q(r) pseudized with  8 coefficients,  rinner =    1.000   1.000   1.000
                                                       1.000   1.000

     atomic species   valence    mass     pseudopotential
     Fe               16.00    55.84500     Fe( 1.00)

     Starting magnetic structure 
     atomic species   magnetization
     Fe              0.143

     48 Sym. Ops., with inversion, found



   Cartesian axes

     site n.     atom                  positions (alat units)
         1        Fe     tau(   1) = (   0.0000000   0.0000000   0.0000000  )
         2        Fe     tau(   2) = (   0.4804040   0.4804040   0.4804040  )

     number of k points=    84  Methfessel-Paxton smearing, width (Ry)=  0.0100
                       cart. coord. in units 2pi/alat
        k(    1) = (   0.0000000   0.0000000   0.0000000), wk =   0.0005787
        k(    2) = (   0.0000000   0.0000000   0.0867326), wk =   0.0034722
        k(    3) = (   0.0000000   0.0000000   0.1734651), wk =   0.0034722
        k(    4) = (   0.0000000   0.0000000   0.2601977), wk =   0.0034722
        k(    5) = (   0.0000000   0.0000000   0.3469302), wk =   0.0034722
        k(    6) = (   0.0000000   0.0000000   0.4336628), wk =   0.0034722
        k(    7) = (   0.0000000   0.0000000  -0.5203954), wk =   0.0017361
        k(    8) = (   0.0000000   0.0867326   0.0867326), wk =   0.0069444
        k(    9) = (   0.0000000   0.0867326   0.1734651), wk =   0.0138889
        k(   10) = (   0.0000000   0.0867326   0.2601977), wk =   0.0138889
        k(   11) = (   0.0000000   0.0867326   0.3469302), wk =   0.0138889
        k(   12) = (   0.0000000   0.0867326   0.4336628), wk =   0.0138889
        k(   13) = (   0.0000000   0.0867326  -0.5203954), wk =   0.0069444
        k(   14) = (   0.0000000   0.1734651   0.1734651), wk =   0.0069444
        k(   15) = (   0.0000000   0.1734651   0.2601977), wk =   0.0138889
        k(   16) = (   0.0000000   0.1734651   0.3469302), wk =   0.0138889
        k(   17) = (   0.0000000   0.1734651   0.4336628), wk =   0.0138889
        k(   18) = (   0.0000000   0.1734651  -0.5203954), wk =   0.0069444
        k(   19) = (   0.0000000   0.2601977   0.2601977), wk =   0.0069444
        k(   20) = (   0.0000000   0.2601977   0.3469302), wk =   0.0138889
        k(   21) = (   0.0000000   0.2601977   0.4336628), wk =   0.0138889
        k(   22) = (   0.0000000   0.2601977  -0.5203954), wk =   0.0069444
        k(   23) = (   0.0000000   0.3469302   0.3469302), wk =   0.0069444
        k(   24) = (   0.0000000   0.3469302   0.4336628), wk =   0.0138889
        k(   25) = (   0.0000000   0.3469302  -0.5203954), wk =   0.0069444
        k(   26) = (   0.0000000   0.4336628   0.4336628), wk =   0.0069444
        k(   27) = (   0.0000000   0.4336628  -0.5203954), wk =   0.0069444
        k(   28) = (   0.0000000  -0.5203954  -0.5203954), wk =   0.0017361
        k(   29) = (   0.0867326   0.0867326   0.0867326), wk =   0.0046296
        k(   30) = (   0.0867326   0.0867326   0.1734651), wk =   0.0138889
        k(   31) = (   0.0867326   0.0867326   0.2601977), wk =   0.0138889
        k(   32) = (   0.0867326   0.0867326   0.3469302), wk =   0.0138889
        k(   33) = (   0.0867326   0.0867326   0.4336628), wk =   0.0138889
        k(   34) = (   0.0867326   0.0867326  -0.5203954), wk =   0.0069444
        k(   35) = (   0.0867326   0.1734651   0.1734651), wk =   0.0138889
        k(   36) = (   0.0867326   0.1734651   0.2601977), wk =   0.0277778
        k(   37) = (   0.0867326   0.1734651   0.3469302), wk =   0.0277778
        k(   38) = (   0.0867326   0.1734651   0.4336628), wk =   0.0277778
        k(   39) = (   0.0867326   0.1734651  -0.5203954), wk =   0.0138889
        k(   40) = (   0.0867326   0.2601977   0.2601977), wk =   0.0138889
        k(   41) = (   0.0867326   0.2601977   0.3469302), wk =   0.0277778
        k(   42) = (   0.0867326   0.2601977   0.4336628), wk =   0.0277778
        k(   43) = (   0.0867326   0.2601977  -0.5203954), wk =   0.0138889
        k(   44) = (   0.0867326   0.3469302   0.3469302), wk =   0.0138889
        k(   45) = (   0.0867326   0.3469302   0.4336628), wk =   0.0277778
        k(   46) = (   0.0867326   0.3469302  -0.5203954), wk =   0.0138889
        k(   47) = (   0.0867326   0.4336628   0.4336628), wk =   0.0138889
        k(   48) = (   0.0867326   0.4336628  -0.5203954), wk =   0.0138889
        k(   49) = (   0.0867326  -0.5203954  -0.5203954), wk =   0.0034722
        k(   50) = (   0.1734651   0.1734651   0.1734651), wk =   0.0046296
        k(   51) = (   0.1734651   0.1734651   0.2601977), wk =   0.0138889
        k(   52) = (   0.1734651   0.1734651   0.3469302), wk =   0.0138889
        k(   53) = (   0.1734651   0.1734651   0.4336628), wk =   0.0138889
        k(   54) = (   0.1734651   0.1734651  -0.5203954), wk =   0.0069444
        k(   55) = (   0.1734651   0.2601977   0.2601977), wk =   0.0138889
        k(   56) = (   0.1734651   0.2601977   0.3469302), wk =   0.0277778
        k(   57) = (   0.1734651   0.2601977   0.4336628), wk =   0.0277778
        k(   58) = (   0.1734651   0.2601977  -0.5203954), wk =   0.0138889
        k(   59) = (   0.1734651   0.3469302   0.3469302), wk =   0.0138889
        k(   60) = (   0.1734651   0.3469302   0.4336628), wk =   0.0277778
        k(   61) = (   0.1734651   0.3469302  -0.5203954), wk =   0.0138889
        k(   62) = (   0.1734651   0.4336628   0.4336628), wk =   0.0138889
        k(   63) = (   0.1734651   0.4336628  -0.5203954), wk =   0.0138889
        k(   64) = (   0.1734651  -0.5203954  -0.5203954), wk =   0.0034722
        k(   65) = (   0.2601977   0.2601977   0.2601977), wk =   0.0046296
        k(   66) = (   0.2601977   0.2601977   0.3469302), wk =   0.0138889
        k(   67) = (   0.2601977   0.2601977   0.4336628), wk =   0.0138889
        k(   68) = (   0.2601977   0.2601977  -0.5203954), wk =   0.0069444
        k(   69) = (   0.2601977   0.3469302   0.3469302), wk =   0.0138889
        k(   70) = (   0.2601977   0.3469302   0.4336628), wk =   0.0277778
        k(   71) = (   0.2601977   0.3469302  -0.5203954), wk =   0.0138889
        k(   72) = (   0.2601977   0.4336628   0.4336628), wk =   0.0138889
        k(   73) = (   0.2601977   0.4336628  -0.5203954), wk =   0.0138889
        k(   74) = (   0.2601977  -0.5203954  -0.5203954), wk =   0.0034722
        k(   75) = (   0.3469302   0.3469302   0.3469302), wk =   0.0046296
        k(   76) = (   0.3469302   0.3469302   0.4336628), wk =   0.0138889
        k(   77) = (   0.3469302   0.3469302  -0.5203954), wk =   0.0069444
        k(   78) = (   0.3469302   0.4336628   0.4336628), wk =   0.0138889
        k(   79) = (   0.3469302   0.4336628  -0.5203954), wk =   0.0138889
        k(   80) = (   0.3469302  -0.5203954  -0.5203954), wk =   0.0034722
        k(   81) = (   0.4336628   0.4336628   0.4336628), wk =   0.0046296
        k(   82) = (   0.4336628   0.4336628  -0.5203954), wk =   0.0069444
        k(   83) = (   0.4336628  -0.5203954  -0.5203954), wk =   0.0034722
        k(   84) = (  -0.5203954  -0.5203954  -0.5203954), wk =   0.0005787

     Dense  grid:    43867 G-vectors     FFT dimensions: (  45,  45,  45)

     Smooth grid:    11075 G-vectors     FFT dimensions: (  27,  27,  27)

     Estimated max dynamical RAM per process >      17.93 MB

     Estimated total dynamical RAM >       1.00 GB

     Check: negative core charge=   -0.000057
     Generating pointlists ...

     Initial potential from superposition of free atoms

     starting charge      30.0000, renormalised to      32.0000
     Starting wfcs are   26 randomized atomic wfcs

     total cpu time spent up to now is       12.1 secs

     Self-consistent Calculation

     iteration #  1     ecut=    70.00 Ry     beta= 0.70
     Davidson diagonalization with overlap
     ethr =  1.00E-06,  avg # of iterations =  7.8

     total cpu time spent up to now is       12.3 secs

     total energy              =    -498.17492025 Ry
     estimated scf accuracy    <       4.44064105 Ry

     total magnetization       =     3.24 Bohr mag/cell
     absolute magnetization    =     3.24 Bohr mag/cell

     iteration #  2     ecut=    70.00 Ry     beta= 0.70
     Davidson diagonalization with overlap
     ethr =  1.00E-02,  avg # of iterations =  3.0

     total cpu time spent up to now is       12.4 secs

     total energy              =    -498.58897182 Ry
     estimated scf accuracy    <      11.36152437 Ry

     total magnetization       =     4.10 Bohr mag/cell
     absolute magnetization    =     4.11 Bohr mag/cell

     iteration #  3     ecut=    70.00 Ry     beta= 0.70
     Davidson diagonalization with overlap
     ethr =  1.00E-02,  avg # of iterations =  2.5

     total cpu time spent up to now is       12.6 secs

     total energy              =    -500.61354430 Ry
     estimated scf accuracy    <       0.00656517 Ry

     total magnetization       =     3.91 Bohr mag/cell
     absolute magnetization    =     3.96 Bohr mag/cell

     iteration #  4     ecut=    70.00 Ry     beta= 0.70
     Davidson diagonalization with overlap
     ethr =  2.05E-05,  avg # of iterations =  3.2

     total cpu time spent up to now is       12.7 secs

     total energy              =    -500.61559790 Ry
     estimated scf accuracy    <       0.00765601 Ry

     total magnetization       =     3.97 Bohr mag/cell
     absolute magnetization    =     4.04 Bohr mag/cell

     iteration #  5     ecut=    70.00 Ry     beta= 0.70
     Davidson diagonalization with overlap
     ethr =  2.05E-05,  avg # of iterations =  2.7

     total cpu time spent up to now is       12.8 secs

     total energy              =    -500.61945442 Ry
     estimated scf accuracy    <       0.00882509 Ry

     total magnetization       =     4.09 Bohr mag/cell
     absolute magnetization    =     4.17 Bohr mag/cell

     iteration #  6     ecut=    70.00 Ry     beta= 0.70
     Davidson diagonalization with overlap
     ethr =  2.05E-05,  avg # of iterations =  1.0

     total cpu time spent up to now is       12.9 secs

     total energy              =    -500.61781352 Ry
     estimated scf accuracy    <       0.00664909 Ry

     total magnetization       =     4.09 Bohr mag/cell
     absolute magnetization    =     4.18 Bohr mag/cell

     iteration #  7     ecut=    70.00 Ry     beta= 0.70
     Davidson diagonalization with overlap
     ethr =  2.05E-05,  avg # of iterations =  2.0

     total cpu time spent up to now is       13.0 secs

     total energy              =    -500.61883002 Ry
     estimated scf accuracy    <       0.00000972 Ry

     total magnetization       =     4.09 Bohr mag/cell
     absolute magnetization    =     4.20 Bohr mag/cell

     iteration #  8     ecut=    70.00 Ry     beta= 0.70
     Davidson diagonalization with overlap
     ethr =  3.04E-08,  avg # of iterations =  3.8

     total cpu time spent up to now is       13.1 secs

     total energy              =    -500.61884905 Ry
     estimated scf accuracy    <       0.00000568 Ry

     total magnetization       =     4.09 Bohr mag/cell
     absolute magnetization    =     4.20 Bohr mag/cell

     iteration #  9     ecut=    70.00 Ry     beta= 0.70
     Davidson diagonalization with overlap
     ethr =  1.78E-08,  avg # of iterations =  1.8

     total cpu time spent up to now is       13.3 secs

     total energy              =    -500.61884402 Ry
     estimated scf accuracy    <       0.00001574 Ry

     total magnetization       =     4.09 Bohr mag/cell
     absolute magnetization    =     4.20 Bohr mag/cell

     iteration # 10     ecut=    70.00 Ry     beta= 0.70
     Davidson diagonalization with overlap
     ethr =  1.78E-08,  avg # of iterations =  2.7

     total cpu time spent up to now is       13.4 secs

     total energy              =    -500.61884668 Ry
     estimated scf accuracy    <          1.0E-08 Ry

     total magnetization       =     4.09 Bohr mag/cell
     absolute magnetization    =     4.20 Bohr mag/cell

     iteration # 11     ecut=    70.00 Ry     beta= 0.70
     Davidson diagonalization with overlap
     ethr =  3.12E-11,  avg # of iterations =  3.5

     total cpu time spent up to now is       13.5 secs

     total energy              =    -500.61884670 Ry
     estimated scf accuracy    <          7.7E-09 Ry

     total magnetization       =     4.09 Bohr mag/cell
     absolute magnetization    =     4.20 Bohr mag/cell

     iteration # 12     ecut=    70.00 Ry     beta= 0.70
     Davidson diagonalization with overlap
     ethr =  2.40E-11,  avg # of iterations =  1.1

     total cpu time spent up to now is       13.6 secs

     total energy              =    -500.61884670 Ry
     estimated scf accuracy    <          1.1E-09 Ry

     total magnetization       =     4.09 Bohr mag/cell
     absolute magnetization    =     4.20 Bohr mag/cell

     iteration # 13     ecut=    70.00 Ry     beta= 0.70
     Davidson diagonalization with overlap
     ethr =  3.37E-12,  avg # of iterations =  2.8

     total cpu time spent up to now is       13.7 secs

     total energy              =    -500.61884670 Ry
     estimated scf accuracy    <          7.0E-10 Ry

     total magnetization       =     4.09 Bohr mag/cell
     absolute magnetization    =     4.20 Bohr mag/cell

     iteration # 14     ecut=    70.00 Ry     beta= 0.70
     Davidson diagonalization with overlap
     ethr =  2.19E-12,  avg # of iterations =  2.1
 
     Magnetic moment per site  (integrated on atomic sphere of radius R)
     atom   1 (R=0.344)  charge= 14.3412  magn=  2.0540
     atom   2 (R=0.344)  charge= 14.3414  magn=  2.0540

     total cpu time spent up to now is       13.8 secs

     End of self-consistent calculation

     Number of k-points >= 100: set verbosity='high' to print the bands.

     the Fermi energy is    19.8542 ev

!    total energy              =    -500.61884670 Ry
     estimated scf accuracy    <          1.1E-11 Ry
     smearing contrib. (-TS)   =       0.00016761 Ry
     internal energy E=F+TS    =    -500.61901430 Ry

     The total energy is F=E-TS. E is the sum of the following terms:
     one-electron contribution =    -211.54474126 Ry
     hartree contribution      =     126.76019407 Ry
     xc contribution           =     -57.76421707 Ry
     ewald contribution        =    -358.07025004 Ry

     total magnetization       =     4.09 Bohr mag/cell
     absolute magnetization    =     4.20 Bohr mag/cell

     convergence has been achieved in  14 iterations

     Forces acting on atoms (cartesian axes, Ry/au):

     atom    1 type  1   force =     0.00000000   -0.00000000    0.00000000
     atom    2 type  1   force =     0.00000000    0.00000000    0.00000000

     Total force =     0.000000     Total SCF correction =     0.000000


     Computing stress (Cartesian axis) and pressure

          total   stress  (Ry/bohr**3)                   (kbar)     P=       -1.60
  -0.00001085   0.00000000   0.00000000           -1.60        0.00        0.00
   0.00000000  -0.00001085   0.00000000            0.00       -1.60        0.00
   0.00000000   0.00000000  -0.00001085            0.00        0.00       -1.60


     Writing all to output data dir ./out/Fe_bcc_fm.save/ :
     XML data file, charge density, pseudopotentials, collected wavefunctions
 
     init_run     :      0.43s CPU      2.43s WALL (       2 calls)
     electrons    :      7.69s CPU      9.66s WALL (       5 calls)
     update_pot   :      0.03s CPU      0.03s WALL (       3 calls)
     forces       :      0.10s CPU      0.11s WALL (       5 calls)
     stress       :      0.18s CPU      0.90s WALL (       5 calls)

     Called by init_run:
     wfcinit      :      0.08s CPU      0.76s WALL (       2 calls)
     potinit      :      0.02s CPU      0.16s WALL (       2 calls)
     hinit0       :      0.15s CPU      0.96s WALL (       2 calls)

     Called by electrons:
     c_bands      :      5.76s CPU      7.47s WALL (      56 calls)
     sum_band     :      1.27s CPU      1.40s WALL (      56 calls)
     v_of_rho     :      0.21s CPU      0.23s WALL (      60 calls)
     newd         :      0.19s CPU      0.57s WALL (      60 calls)
     mix_rho      :      0.13s CPU      0.15s WALL (      56 calls)

     Called by c_bands:
     init_us_2    :      0.11s CPU      0.12s WALL (    1116 calls)
     cegterg      :      4.23s CPU      5.78s WALL (     504 calls)

     Called by *egterg:
     cdiaghg      :      0.61s CPU      2.47s WALL (    1563 calls)
     h_psi        :      3.20s CPU      3.51s WALL (    1617 calls)
     s_psi        :      0.06s CPU      0.06s WALL (    1617 calls)
     g_psi        :      0.02s CPU      0.02s WALL (    1095 calls)

     Called by h_psi:
     h_psi:calbec :      0.11s CPU      0.21s WALL (    1617 calls)
     vloc_psi     :      3.00s CPU      3.20s WALL (    1617 calls)
                                        0.00s GPU  (    1617 calls)
     add_vuspsi   :      0.06s CPU      0.07s WALL (    1617 calls)

     General routines
     calbec       :      0.19s CPU      0.29s WALL (    2886 calls)
     fft          :      0.28s CPU      1.09s WALL (     685 calls)
     ffts         :      0.03s CPU      0.10s WALL (     232 calls)
     fftw         :      3.21s CPU      3.42s WALL (   63108 calls)
     interpolate  :      0.08s CPU      0.22s WALL (     120 calls)
 
     Parallel routines
 
     PWSCF        :      8.60s CPU     13.96s WALL

 
   This run was terminated on:  18:21:25  10Jul2025            

=------------------------------------------------------------------------------=
   JOB DONE.
=------------------------------------------------------------------------------=
