
     Program PWSCF v.7.1 starts on 11Jun2026 at  4: 9:17 

     This program is part of the open-source Quantum ESPRESSO suite
     for quantum simulation of materials; please cite
         "P. Giannozzi et al., J. Phys.:Condens. Matter 21 395502 (2009);
         "P. Giannozzi et al., J. Phys.:Condens. Matter 29 465901 (2017);
         "P. Giannozzi et al., J. Chem. Phys. 152 154105 (2020);
          URL http://www.quantum-espresso.org", 
     in publications or presentations arising from this work. More details at
     http://www.quantum-espresso.org/quote

     Parallel version (MPI & OpenMP), running on       7 processor cores
     Number of MPI processes:                 7
     Threads/MPI process:                     1

     MPI processes distributed on     7 nodes
     224009 MiB available memory on the printing compute node when the environment starts
 
     Waiting for input...
     Reading input from standard input
Warning: card &CELL ignored
Warning: card / ignored
Warning: card &FCP ignored
Warning: card / ignored
Warning: card &RISM ignored
Warning: card / ignored

     Current dimensions of program PWSCF are:
     Max number of different atomic species (ntypx) = 10
     Max number of k-points (npk) =  40000
     Max angular momentum in pseudopotentials (lmaxx) =  4
 
     K-points division:     npool     =       7
     Subspace diagonalization in iterative solution of the eigenvalue problem:
     a serial algorithm will be used

 
     G-vector sticks info
     --------------------
     sticks:   dense  smooth     PW     G-vecs:    dense   smooth      PW
     Sum         805     313    109               238861    60293   12081
 
     Using Slab Decomposition
 


     bravais-lattice index     =            0
     lattice parameter (alat)  =       5.4037  a.u.
     unit-cell volume          =    1768.3697 (a.u.)^3
     number of atoms/cell      =            4
     number of atomic types    =            1
     number of electrons       =        12.00
     number of Kohn-Sham states=           10
     kinetic-energy cutoff     =      40.0000  Ry
     charge density cutoff     =     400.0000  Ry
     scf convergence threshold =      1.0E-08
     mixing beta               =       0.7000
     number of iterations used =            8  plain     mixing
     Exchange-correlation= SLA  PW   PBE  PBE
                           (   1   4   3   4   0   0   0)

     Effective Screening Medium Method
     =================================
     Boundary Conditions: Vacuum-Slab-Vacuum
     total charge in unit cell        =   0.0000
     grid points for fit at edges     =        4 
 

     celldm(1)=   5.403747  celldm(2)=   0.000000  celldm(3)=   0.000000
     celldm(4)=   0.000000  celldm(5)=   0.000000  celldm(6)=   0.000000

     crystal axes: (cart. coord. in units of alat)
               a(1) = (   1.000000   0.000000   0.000000 )  
               a(2) = (   0.500000   0.866025   0.000000 )  
               a(3) = (   0.000000   0.000000  12.940688 )  

     reciprocal axes: (cart. coord. in units 2 pi/alat)
               b(1) = (  1.000000 -0.577350  0.000000 )  
               b(2) = (  0.000000  1.154701  0.000000 )  
               b(3) = (  0.000000  0.000000  0.077276 )  


     PseudoPot. # 1 for Al read from file:
     /home/k0750/k075000/PSPOT/al_pbe_v1.uspp.F.UPF
     MD5 check sum: 0a6289f5291fc8f409219462bc851e1f
     Pseudo is Ultrasoft + core correction, Zval =  3.0
     Generated by new atomic code, or converted to UPF format
     Using radial grid of  893 points,  3 beta functions with: 
                l(1) =   0
                l(2) =   1
                l(3) =   2
     Q(r) pseudized with  8 coefficients,  rinner =    0.900   0.900   0.900
                                                       0.900   0.900

     atomic species   valence    mass     pseudopotential
        Al             3.00    26.98154     Al( 1.00)

     No symmetry found



   Cartesian axes

     site n.     atom                  positions (alat units)
         1           Al  tau(   1) = (   0.0000000   0.0000000  -1.2247449  )
         2           Al  tau(   2) = (   0.5000000   0.2886751  -0.4082483  )
         3           Al  tau(   3) = (   0.0000000   0.5773503   0.4082483  )
         4           Al  tau(   4) = (   0.0000000   0.0000000   1.2247449  )

     number of k points=    74  Methfessel-Paxton smearing, width (Ry)=  0.0100
                       cart. coord. in units 2pi/alat
        k(    1) = (   0.0000000   0.0000000   0.0000000), wk =   0.0138889
        k(    2) = (   0.0000000   0.0962250   0.0000000), wk =   0.0277778
        k(    3) = (   0.0000000   0.1924501   0.0000000), wk =   0.0277778
        k(    4) = (   0.0000000   0.2886751   0.0000000), wk =   0.0277778
        k(    5) = (   0.0000000   0.3849002   0.0000000), wk =   0.0277778
        k(    6) = (   0.0000000   0.4811252   0.0000000), wk =   0.0277778
        k(    7) = (   0.0000000  -0.5773503   0.0000000), wk =   0.0138889
        k(    8) = (   0.0833333  -0.0481125   0.0000000), wk =   0.0277778
        k(    9) = (   0.0833333   0.0481125   0.0000000), wk =   0.0277778
        k(   10) = (   0.0833333   0.1443376   0.0000000), wk =   0.0277778
        k(   11) = (   0.0833333   0.2405626   0.0000000), wk =   0.0277778
        k(   12) = (   0.0833333   0.3367877   0.0000000), wk =   0.0277778
        k(   13) = (   0.0833333   0.4330127   0.0000000), wk =   0.0277778
        k(   14) = (   0.0833333  -0.6254628   0.0000000), wk =   0.0277778
        k(   15) = (   0.0833333  -0.5292377   0.0000000), wk =   0.0277778
        k(   16) = (   0.0833333  -0.4330127   0.0000000), wk =   0.0277778
        k(   17) = (   0.0833333  -0.3367877   0.0000000), wk =   0.0277778
        k(   18) = (   0.0833333  -0.2405626   0.0000000), wk =   0.0277778
        k(   19) = (   0.0833333  -0.1443376   0.0000000), wk =   0.0277778
        k(   20) = (   0.1666667  -0.0962250   0.0000000), wk =   0.0277778
        k(   21) = (   0.1666667   0.0000000   0.0000000), wk =   0.0277778
        k(   22) = (   0.1666667   0.0962250   0.0000000), wk =   0.0277778
        k(   23) = (   0.1666667   0.1924501   0.0000000), wk =   0.0277778
        k(   24) = (   0.1666667   0.2886751   0.0000000), wk =   0.0277778
        k(   25) = (   0.1666667   0.3849002   0.0000000), wk =   0.0277778
        k(   26) = (   0.1666667  -0.6735753   0.0000000), wk =   0.0277778
        k(   27) = (   0.1666667  -0.5773503   0.0000000), wk =   0.0277778
        k(   28) = (   0.1666667  -0.4811252   0.0000000), wk =   0.0277778
        k(   29) = (   0.1666667  -0.3849002   0.0000000), wk =   0.0277778
        k(   30) = (   0.1666667  -0.2886751   0.0000000), wk =   0.0277778
        k(   31) = (   0.1666667  -0.1924501   0.0000000), wk =   0.0277778
        k(   32) = (   0.2500000  -0.1443376   0.0000000), wk =   0.0277778
        k(   33) = (   0.2500000  -0.0481125   0.0000000), wk =   0.0277778
        k(   34) = (   0.2500000   0.0481125   0.0000000), wk =   0.0277778
        k(   35) = (   0.2500000   0.1443376   0.0000000), wk =   0.0277778
        k(   36) = (   0.2500000   0.2405626   0.0000000), wk =   0.0277778
        k(   37) = (   0.2500000   0.3367877   0.0000000), wk =   0.0277778
        k(   38) = (   0.2500000  -0.7216878   0.0000000), wk =   0.0277778
        k(   39) = (   0.2500000  -0.6254628   0.0000000), wk =   0.0277778
        k(   40) = (   0.2500000  -0.5292377   0.0000000), wk =   0.0277778
        k(   41) = (   0.2500000  -0.4330127   0.0000000), wk =   0.0277778
        k(   42) = (   0.2500000  -0.3367877   0.0000000), wk =   0.0277778
        k(   43) = (   0.2500000  -0.2405626   0.0000000), wk =   0.0277778
        k(   44) = (   0.3333333  -0.1924501   0.0000000), wk =   0.0277778
        k(   45) = (   0.3333333  -0.0962250   0.0000000), wk =   0.0277778
        k(   46) = (   0.3333333   0.0000000   0.0000000), wk =   0.0277778
        k(   47) = (   0.3333333   0.0962250   0.0000000), wk =   0.0277778
        k(   48) = (   0.3333333   0.1924501   0.0000000), wk =   0.0277778
        k(   49) = (   0.3333333   0.2886751   0.0000000), wk =   0.0277778
        k(   50) = (   0.3333333  -0.7698004   0.0000000), wk =   0.0277778
        k(   51) = (   0.3333333  -0.6735753   0.0000000), wk =   0.0277778
        k(   52) = (   0.3333333  -0.5773503   0.0000000), wk =   0.0277778
        k(   53) = (   0.3333333  -0.4811252   0.0000000), wk =   0.0277778
        k(   54) = (   0.3333333  -0.3849002   0.0000000), wk =   0.0277778
        k(   55) = (   0.3333333  -0.2886751   0.0000000), wk =   0.0277778
        k(   56) = (   0.4166667  -0.2405626   0.0000000), wk =   0.0277778
        k(   57) = (   0.4166667  -0.1443376   0.0000000), wk =   0.0277778
        k(   58) = (   0.4166667  -0.0481125   0.0000000), wk =   0.0277778
        k(   59) = (   0.4166667   0.0481125   0.0000000), wk =   0.0277778
        k(   60) = (   0.4166667   0.1443376   0.0000000), wk =   0.0277778
        k(   61) = (   0.4166667   0.2405626   0.0000000), wk =   0.0277778
        k(   62) = (   0.4166667  -0.8179129   0.0000000), wk =   0.0277778
        k(   63) = (   0.4166667  -0.7216878   0.0000000), wk =   0.0277778
        k(   64) = (   0.4166667  -0.6254628   0.0000000), wk =   0.0277778
        k(   65) = (   0.4166667  -0.5292377   0.0000000), wk =   0.0277778
        k(   66) = (   0.4166667  -0.4330127   0.0000000), wk =   0.0277778
        k(   67) = (   0.4166667  -0.3367877   0.0000000), wk =   0.0277778
        k(   68) = (  -0.5000000   0.2886751   0.0000000), wk =   0.0138889
        k(   69) = (  -0.5000000   0.3849002   0.0000000), wk =   0.0277778
        k(   70) = (  -0.5000000   0.4811252   0.0000000), wk =   0.0277778
        k(   71) = (  -0.5000000   0.5773503   0.0000000), wk =   0.0277778
        k(   72) = (  -0.5000000   0.6735753   0.0000000), wk =   0.0277778
        k(   73) = (  -0.5000000   0.7698004   0.0000000), wk =   0.0277778
        k(   74) = (  -0.5000000  -0.2886751   0.0000000), wk =   0.0138889

     Dense  grid:   238861 G-vectors     FFT dimensions: (  36,  36, 450)

     Smooth grid:    60293 G-vectors     FFT dimensions: (  24,  24, 288)

     Estimated max dynamical RAM per process >     192.89 MB

     Estimated total dynamical RAM >    1000.35 MB

     Initial potential from superposition of free atoms

     starting charge      11.9901, renormalised to      12.0000

     negative rho (up, down):  9.604E-05 0.000E+00
     Starting wfcs are   16 randomized atomic wfcs

     total cpu time spent up to now is        1.9 secs

     Self-consistent Calculation

     iteration #  1     ecut=    40.00 Ry     beta= 0.70
     Davidson diagonalization with overlap
     ethr =  1.00E-02,  avg # of iterations =  5.1

     total cpu time spent up to now is        4.5 secs

     total energy              =     -26.56407103 Ry
     estimated scf accuracy    <       0.12885651 Ry

     iteration #  2     ecut=    40.00 Ry     beta= 0.70
     Davidson diagonalization with overlap
     c_bands:  2 eigenvalues not converged
     c_bands:  4 eigenvalues not converged
     c_bands:  3 eigenvalues not converged
     c_bands:  1 eigenvalues not converged
     c_bands:  1 eigenvalues not converged
     c_bands:  2 eigenvalues not converged
     ethr =  1.07E-03,  avg # of iterations = 13.2

     negative rho (up, down):  2.374E-08 0.000E+00

     total cpu time spent up to now is        9.3 secs

     total energy              =     -26.36006906 Ry
     estimated scf accuracy    <       4.60792869 Ry

     iteration #  3     ecut=    40.00 Ry     beta= 0.70
     Davidson diagonalization with overlap
     ethr =  1.07E-03,  avg # of iterations =  6.3

     total cpu time spent up to now is       11.7 secs

     total energy              =     -26.74795876 Ry
     estimated scf accuracy    <       0.01261065 Ry

     iteration #  4     ecut=    40.00 Ry     beta= 0.70
     Davidson diagonalization with overlap
     c_bands:  2 eigenvalues not converged
     c_bands:  1 eigenvalues not converged
     c_bands:  1 eigenvalues not converged
     c_bands:  1 eigenvalues not converged
     c_bands:  2 eigenvalues not converged
     ethr =  1.05E-04,  avg # of iterations = 14.2

     total cpu time spent up to now is       18.1 secs

     total energy              =     -26.76106559 Ry
     estimated scf accuracy    <       0.11342207 Ry

     iteration #  5     ecut=    40.00 Ry     beta= 0.70
     Davidson diagonalization with overlap
     c_bands:  2 eigenvalues not converged
     c_bands:  1 eigenvalues not converged
     c_bands:  2 eigenvalues not converged
     ethr =  1.05E-04,  avg # of iterations =  9.2

     total cpu time spent up to now is       21.0 secs

     total energy              =     -26.75445855 Ry
     estimated scf accuracy    <       0.61558872 Ry

     iteration #  6     ecut=    40.00 Ry     beta= 0.70
     Davidson diagonalization with overlap
     ethr =  1.05E-04,  avg # of iterations =  1.4

     negative rho (up, down):  1.861E-05 0.000E+00

     total cpu time spent up to now is       22.6 secs

     total energy              =     -26.77291687 Ry
     estimated scf accuracy    <       0.00220760 Ry

     iteration #  7     ecut=    40.00 Ry     beta= 0.70
     Davidson diagonalization with overlap
     c_bands:  1 eigenvalues not converged
     c_bands:  2 eigenvalues not converged
     c_bands:  2 eigenvalues not converged
     c_bands:  3 eigenvalues not converged
     c_bands:  2 eigenvalues not converged
     c_bands:  1 eigenvalues not converged
     c_bands:  2 eigenvalues not converged
     ethr =  1.84E-05,  avg # of iterations = 14.1

     negative rho (up, down):  3.183E-05 0.000E+00

     total cpu time spent up to now is       26.9 secs

     total energy              =     -26.77508548 Ry
     estimated scf accuracy    <       0.00704708 Ry

     iteration #  8     ecut=    40.00 Ry     beta= 0.70
     Davidson diagonalization with overlap
     c_bands:  2 eigenvalues not converged
     c_bands:  2 eigenvalues not converged
     ethr =  1.84E-05,  avg # of iterations =  4.0

     negative rho (up, down):  2.504E-05 0.000E+00

     total cpu time spent up to now is       29.4 secs

     total energy              =     -26.77493600 Ry
     estimated scf accuracy    <       0.00267550 Ry

     iteration #  9     ecut=    40.00 Ry     beta= 0.70
     Davidson diagonalization with overlap
     c_bands:  2 eigenvalues not converged
     ethr =  1.84E-05,  avg # of iterations =  1.6

     negative rho (up, down):  2.790E-05 0.000E+00

     total cpu time spent up to now is       31.2 secs

     total energy              =     -26.77508976 Ry
     estimated scf accuracy    <       0.00029974 Ry

     iteration # 10     ecut=    40.00 Ry     beta= 0.70
     Davidson diagonalization with overlap
     c_bands:  3 eigenvalues not converged
     c_bands:  3 eigenvalues not converged
     c_bands:  3 eigenvalues not converged
     c_bands:  1 eigenvalues not converged
     c_bands:  1 eigenvalues not converged
     c_bands:  1 eigenvalues not converged
     c_bands:  2 eigenvalues not converged
     ethr =  2.50E-06,  avg # of iterations = 15.8

     negative rho (up, down):  2.887E-05 0.000E+00

     total cpu time spent up to now is       36.7 secs

     total energy              =     -26.77546693 Ry
     estimated scf accuracy    <       0.00002677 Ry

     iteration # 11     ecut=    40.00 Ry     beta= 0.70
     Davidson diagonalization with overlap
     c_bands:  1 eigenvalues not converged
     c_bands:  2 eigenvalues not converged
     c_bands:  1 eigenvalues not converged
     c_bands:  1 eigenvalues not converged
     ethr =  2.23E-07,  avg # of iterations =  9.9

     negative rho (up, down):  3.016E-05 0.000E+00

     total cpu time spent up to now is       41.8 secs

     total energy              =     -26.77553806 Ry
     estimated scf accuracy    <       0.00006326 Ry

     iteration # 12     ecut=    40.00 Ry     beta= 0.70
     Davidson diagonalization with overlap
     c_bands:  1 eigenvalues not converged
     c_bands:  2 eigenvalues not converged
     c_bands:  1 eigenvalues not converged
     ethr =  2.23E-07,  avg # of iterations =  2.1

     negative rho (up, down):  4.571E-05 0.000E+00

     total cpu time spent up to now is       43.7 secs

     total energy              =     -26.77552520 Ry
     estimated scf accuracy    <       0.00002840 Ry

     iteration # 13     ecut=    40.00 Ry     beta= 0.70
     Davidson diagonalization with overlap
     c_bands:  1 eigenvalues not converged
     c_bands:  1 eigenvalues not converged
     ethr =  2.23E-07,  avg # of iterations =  4.4

     negative rho (up, down):  3.983E-05 0.000E+00

     total cpu time spent up to now is       46.0 secs

     total energy              =     -26.77553375 Ry
     estimated scf accuracy    <       0.00003165 Ry

     iteration # 14     ecut=    40.00 Ry     beta= 0.70
     Davidson diagonalization with overlap
     ethr =  2.23E-07,  avg # of iterations =  1.3

     negative rho (up, down):  4.110E-05 0.000E+00

     total cpu time spent up to now is       47.6 secs

     total energy              =     -26.77553751 Ry
     estimated scf accuracy    <       0.00000044 Ry

     iteration # 15     ecut=    40.00 Ry     beta= 0.70
     Davidson diagonalization with overlap
     ethr =  3.68E-09,  avg # of iterations = 13.4

     negative rho (up, down):  4.102E-05 0.000E+00

     total cpu time spent up to now is       54.4 secs

     total energy              =     -26.77554071 Ry
     estimated scf accuracy    <       0.00000010 Ry

     iteration # 16     ecut=    40.00 Ry     beta= 0.70
     Davidson diagonalization with overlap
     ethr =  8.51E-10,  avg # of iterations =  5.7

     negative rho (up, down):  4.121E-05 0.000E+00

     total cpu time spent up to now is       58.5 secs

     total energy              =     -26.77554090 Ry
     estimated scf accuracy    <       0.00000019 Ry

     iteration # 17     ecut=    40.00 Ry     beta= 0.70
     Davidson diagonalization with overlap
     ethr =  8.51E-10,  avg # of iterations =  4.5

     negative rho (up, down):  4.115E-05 0.000E+00

     total cpu time spent up to now is       60.8 secs

     total energy              =     -26.77554088 Ry
     estimated scf accuracy    <       0.00000073 Ry

     iteration # 18     ecut=    40.00 Ry     beta= 0.70
     Davidson diagonalization with overlap
     ethr =  8.51E-10,  avg # of iterations =  1.0

     negative rho (up, down):  4.095E-05 0.000E+00

     total cpu time spent up to now is       62.3 secs

     total energy              =     -26.77554082 Ry
     estimated scf accuracy    <       0.00000033 Ry

     iteration # 19     ecut=    40.00 Ry     beta= 0.70
     Davidson diagonalization with overlap
     ethr =  8.51E-10,  avg # of iterations =  2.7

     negative rho (up, down):  4.094E-05 0.000E+00

     total cpu time spent up to now is       64.1 secs

     total energy              =     -26.77554085 Ry
     estimated scf accuracy    <       0.00000014 Ry

     iteration # 20     ecut=    40.00 Ry     beta= 0.70
     Davidson diagonalization with overlap
     ethr =  8.51E-10,  avg # of iterations =  1.0

     negative rho (up, down):  4.089E-05 0.000E+00

     total cpu time spent up to now is       65.6 secs

     total energy              =     -26.77554085 Ry
     estimated scf accuracy    <       0.00000013 Ry

     iteration # 21     ecut=    40.00 Ry     beta= 0.70
     Davidson diagonalization with overlap
     ethr =  8.51E-10,  avg # of iterations =  1.0

     negative rho (up, down):  4.092E-05 0.000E+00

     total cpu time spent up to now is       67.1 secs

     End of self-consistent calculation

          k = 0.0000 0.0000 0.0000 (  7713 PWs)   bands (ev):

   -14.8446 -13.8095 -12.1476  -9.9227  -7.4532  -4.5490  -1.9514  -0.5341
    -0.1529   0.1603

          k = 0.0000 0.0962 0.0000 (  7689 PWs)   bands (ev):

   -14.6772 -13.6429 -11.9822  -9.7582  -7.2947  -4.3923  -1.7959  -0.3674
     0.0210   0.3163

          k = 0.0000 0.1925 0.0000 (  7645 PWs)   bands (ev):

   -14.1760 -13.1442 -11.4873  -9.2665  -6.8202  -3.9282  -1.3485   0.1061
     0.5087   0.7842

          k = 0.0000 0.2887 0.0000 (  7579 PWs)   bands (ev):

   -13.3441 -12.3167 -10.6668  -8.4544  -6.0347  -3.2195  -1.7588  -0.7667
    -0.4335   0.7947

          k = 0.0000 0.3849 0.0000 (  7552 PWs)   bands (ev):

   -12.1867 -11.1661  -9.5284  -7.3437  -5.0247  -4.3745  -3.4238  -1.9725
    -1.8105   0.2081

          k = 0.0000 0.4811 0.0000 (  7484 PWs)   bands (ev):

   -10.7120  -9.7025  -8.0961  -6.9064  -6.1270  -5.4777  -4.1696  -3.4623
    -2.0578  -0.5865

          k = 0.0000-0.5774 0.0000 (  7472 PWs)   bands (ev):

    -8.9634  -8.9040  -7.9735  -7.9392  -6.5624  -5.9610  -4.1293  -3.9496
    -1.9328  -1.5809

          k = 0.0833-0.0481 0.0000 (  7689 PWs)   bands (ev):

   -14.6772 -13.6429 -11.9822  -9.7582  -7.2947  -4.3923  -1.7958  -0.3675
     0.0118   0.3241

          k = 0.0833 0.0481 0.0000 (  7689 PWs)   bands (ev):

   -14.6772 -13.6429 -11.9822  -9.7582  -7.2947  -4.3923  -1.7957  -0.3689
     0.0127   0.3238

          k = 0.0833 0.1443 0.0000 (  7627 PWs)   bands (ev):

   -14.3429 -13.3103 -11.6521  -9.4301  -6.9782  -4.0816  -1.4913  -0.0447
     0.3470   0.6611

          k = 0.0833 0.2406 0.0000 (  7595 PWs)   bands (ev):

   -13.6764 -12.6471 -10.9943  -8.7779  -6.3476  -3.4777  -1.0047  -0.0679
     0.5874   0.7881

          k = 0.0833 0.3368 0.0000 (  7559 PWs)   bands (ev):

   -12.6817 -11.6580 -10.0145  -7.8131  -5.4165  -3.2043  -2.4168  -1.9012
    -0.5525   0.1041

          k = 0.0833 0.4330 0.0000 (  7528 PWs)   bands (ev):

   -11.3655 -10.3504  -8.7248  -6.6076  -5.5526  -4.5392  -4.0394  -2.9396
    -1.3202  -0.8128

          k = 0.0833-0.6255 0.0000 (  7492 PWs)   bands (ev):

    -9.7382  -8.7400  -7.8211  -7.2418  -6.7261  -5.1868  -4.7357  -2.9879
    -2.5513  -0.7182

          k = 0.0833-0.5292 0.0000 (  7492 PWs)   bands (ev):

    -9.7382  -8.7400  -7.8211  -7.2418  -6.7261  -5.1868  -4.7357  -2.9879
    -2.5512  -0.7184

          k = 0.0833-0.4330 0.0000 (  7528 PWs)   bands (ev):

   -11.3655 -10.3504  -8.7248  -6.6076  -5.5526  -4.5392  -4.0394  -2.9395
    -1.3202  -0.8125

          k = 0.0833-0.3368 0.0000 (  7559 PWs)   bands (ev):

   -12.6817 -11.6580 -10.0145  -7.8131  -5.4165  -3.2040  -2.4168  -1.9012
    -0.5520   0.1047

          k = 0.0833-0.2406 0.0000 (  7595 PWs)   bands (ev):

   -13.6764 -12.6471 -10.9943  -8.7779  -6.3476  -3.4777  -1.0044  -0.0674
     0.5890   0.7899

          k = 0.0833-0.1443 0.0000 (  7627 PWs)   bands (ev):

   -14.3429 -13.3103 -11.6521  -9.4301  -6.9782  -4.0816  -1.4912  -0.0422
     0.3542   0.6494

          k = 0.1667-0.0962 0.0000 (  7645 PWs)   bands (ev):

   -14.1760 -13.1442 -11.4873  -9.2665  -6.8202  -3.9283  -1.3482   0.1099
     0.5220   0.8166

          k = 0.1667 0.0000 0.0000 (  7627 PWs)   bands (ev):

   -14.3429 -13.3103 -11.6521  -9.4301  -6.9782  -4.0816  -1.4910  -0.0439
     0.3494   0.6456

          k = 0.1667 0.0962 0.0000 (  7645 PWs)   bands (ev):

   -14.1760 -13.1442 -11.4873  -9.2665  -6.8202  -3.9283  -1.3486   0.1081
     0.5265   0.8003

          k = 0.1667 0.1925 0.0000 (  7595 PWs)   bands (ev):

   -13.6764 -12.6471 -10.9943  -8.7779  -6.3476  -3.4779  -1.0045  -0.0670
     0.5880   0.7908

          k = 0.1667 0.2887 0.0000 (  7579 PWs)   bands (ev):

   -12.8470 -11.8223 -10.1771  -7.9717  -5.5667  -2.8106  -1.4847  -1.1259
    -0.4274  -0.2599

          k = 0.1667 0.3849 0.0000 (  7540 PWs)   bands (ev):

   -11.6933 -10.6758  -9.0439  -6.8717  -4.5718  -3.9084  -2.9687  -2.2737
    -1.5531  -1.4007

          k = 0.1667-0.6736 0.0000 (  7536 PWs)   bands (ev):

   -10.2237  -9.2179  -7.6202  -6.4334  -5.6661  -5.0236  -3.7416  -3.0859
    -2.5766  -1.7985

          k = 0.1667-0.5774 0.0000 (  7532 PWs)   bands (ev):

    -8.4833  -8.4207  -7.5005  -7.4596  -6.0995  -5.4903  -3.7464  -3.6406
    -2.6204  -1.6395

          k = 0.1667-0.4811 0.0000 (  7536 PWs)   bands (ev):

   -10.2237  -9.2179  -7.6202  -6.4334  -5.6661  -5.0236  -3.7416  -3.0859
    -2.5766  -1.7982

          k = 0.1667-0.3849 0.0000 (  7540 PWs)   bands (ev):

   -11.6933 -10.6758  -9.0439  -6.8717  -4.5718  -3.9084  -2.9687  -2.2737
    -1.5529  -1.3996

          k = 0.1667-0.2887 0.0000 (  7579 PWs)   bands (ev):

   -12.8470 -11.8223 -10.1771  -7.9717  -5.5667  -2.8106  -1.4849  -1.1258
    -0.4256  -0.2603

          k = 0.1667-0.1925 0.0000 (  7595 PWs)   bands (ev):

   -13.6764 -12.6471 -10.9943  -8.7779  -6.3476  -3.4779  -1.0046  -0.0676
     0.5875   0.7928

          k = 0.2500-0.1443 0.0000 (  7579 PWs)   bands (ev):

   -13.3441 -12.3167 -10.6668  -8.4544  -6.0347  -3.2194  -1.7586  -0.7664
    -0.4323   0.7965

          k = 0.2500-0.0481 0.0000 (  7595 PWs)   bands (ev):

   -13.6764 -12.6471 -10.9943  -8.7779  -6.3476  -3.4778  -1.0047  -0.0676
     0.5881   0.7898

          k = 0.2500 0.0481 0.0000 (  7595 PWs)   bands (ev):

   -13.6764 -12.6471 -10.9943  -8.7779  -6.3476  -3.4777  -1.0046  -0.0674
     0.5864   0.7882

          k = 0.2500 0.1443 0.0000 (  7579 PWs)   bands (ev):

   -13.3441 -12.3167 -10.6668  -8.4544  -6.0347  -3.2195  -1.7589  -0.7670
    -0.4332   0.8026

          k = 0.2500 0.2406 0.0000 (  7559 PWs)   bands (ev):

   -12.6817 -11.6580 -10.0145  -7.8131  -5.4165  -3.2040  -2.4168  -1.9011
    -0.5520   0.1041

          k = 0.2500 0.3368 0.0000 (  7540 PWs)   bands (ev):

   -11.6933 -10.6758  -9.0439  -6.8717  -4.5718  -3.9084  -2.9687  -2.2738
    -1.5539  -1.4018

          k = 0.2500-0.7217 0.0000 (  7531 PWs)   bands (ev):

   -10.3860  -9.3783  -7.7698  -5.7250  -4.7450  -4.5295  -3.7137  -3.5086
    -3.0277  -2.2502

          k = 0.2500-0.6255 0.0000 (  7533 PWs)   bands (ev):

    -8.7707  -7.7831  -6.8696  -6.3176  -5.7895  -5.0351  -4.3104  -4.2454
    -3.3440  -2.2567

          k = 0.2500-0.5292 0.0000 (  7533 PWs)   bands (ev):

    -8.7707  -7.7831  -6.8696  -6.3176  -5.7895  -5.0351  -4.3104  -4.2454
    -3.3440  -2.2559

          k = 0.2500-0.4330 0.0000 (  7531 PWs)   bands (ev):

   -10.3860  -9.3783  -7.7698  -5.7250  -4.7450  -4.5295  -3.7138  -3.5086
    -3.0280  -2.2509

          k = 0.2500-0.3368 0.0000 (  7540 PWs)   bands (ev):

   -11.6933 -10.6758  -9.0439  -6.8717  -4.5718  -3.9084  -2.9688  -2.2736
    -1.5536  -1.4015

          k = 0.2500-0.2406 0.0000 (  7559 PWs)   bands (ev):

   -12.6817 -11.6580 -10.0145  -7.8131  -5.4165  -3.2040  -2.4167  -1.9009
    -0.5527   0.1061

          k = 0.3333-0.1925 0.0000 (  7552 PWs)   bands (ev):

   -12.1867 -11.1661  -9.5284  -7.3437  -5.0247  -4.3745  -3.4238  -1.9726
    -1.8105   0.2074

          k = 0.3333-0.0962 0.0000 (  7559 PWs)   bands (ev):

   -12.6817 -11.6580 -10.0145  -7.8131  -5.4165  -3.2042  -2.4169  -1.9010
    -0.5505   0.1046

          k = 0.3333 0.0000 0.0000 (  7579 PWs)   bands (ev):

   -12.8470 -11.8223 -10.1771  -7.9717  -5.5667  -2.8105  -1.4848  -1.1258
    -0.4253  -0.2600

          k = 0.3333 0.0962 0.0000 (  7559 PWs)   bands (ev):

   -12.6817 -11.6580 -10.0145  -7.8131  -5.4165  -3.2039  -2.4164  -1.9009
    -0.5511   0.1043

          k = 0.3333 0.1925 0.0000 (  7552 PWs)   bands (ev):

   -12.1867 -11.1661  -9.5284  -7.3437  -5.0247  -4.3745  -3.4238  -1.9725
    -1.8104   0.2071

          k = 0.3333 0.2887 0.0000 (  7528 PWs)   bands (ev):

   -11.3655 -10.3504  -8.7248  -6.6076  -5.5526  -4.5392  -4.0394  -2.9394
    -1.3200  -0.8104

          k = 0.3333-0.7698 0.0000 (  7536 PWs)   bands (ev):

   -10.2237  -9.2179  -7.6202  -6.4334  -5.6661  -5.0236  -3.7416  -3.0859
    -2.5766  -1.7981

          k = 0.3333-0.6736 0.0000 (  7533 PWs)   bands (ev):

    -8.7707  -7.7831  -6.8696  -6.3176  -5.7895  -5.0351  -4.3104  -4.2454
    -3.3440  -2.2567

          k = 0.3333-0.5774 0.0000 (  7494 PWs)   bands (ev):

    -7.0855  -6.9901  -6.9900  -6.1249  -6.1249  -6.0116  -4.6430  -4.6430
    -3.6443  -2.1785

          k = 0.3333-0.4811 0.0000 (  7533 PWs)   bands (ev):

    -8.7707  -7.7831  -6.8696  -6.3176  -5.7895  -5.0351  -4.3104  -4.2454
    -3.3440  -2.2567

          k = 0.3333-0.3849 0.0000 (  7536 PWs)   bands (ev):

   -10.2237  -9.2179  -7.6202  -6.4334  -5.6661  -5.0236  -3.7415  -3.0859
    -2.5764  -1.7975

          k = 0.3333-0.2887 0.0000 (  7528 PWs)   bands (ev):

   -11.3655 -10.3504  -8.7248  -6.6076  -5.5526  -4.5392  -4.0394  -2.9396
    -1.3191  -0.8121

          k = 0.4167-0.2406 0.0000 (  7484 PWs)   bands (ev):

   -10.7120  -9.7025  -8.0961  -6.9064  -6.1270  -5.4777  -4.1696  -3.4623
    -2.0578  -0.5862

          k = 0.4167-0.1443 0.0000 (  7528 PWs)   bands (ev):

   -11.3655 -10.3504  -8.7248  -6.6076  -5.5526  -4.5392  -4.0394  -2.9396
    -1.3200  -0.8121

          k = 0.4167-0.0481 0.0000 (  7540 PWs)   bands (ev):

   -11.6933 -10.6758  -9.0439  -6.8717  -4.5718  -3.9084  -2.9687  -2.2738
    -1.5536  -1.4013

          k = 0.4167 0.0481 0.0000 (  7540 PWs)   bands (ev):

   -11.6933 -10.6758  -9.0439  -6.8717  -4.5718  -3.9084  -2.9687  -2.2735
    -1.5546  -1.4035

          k = 0.4167 0.1443 0.0000 (  7528 PWs)   bands (ev):

   -11.3655 -10.3504  -8.7248  -6.6076  -5.5526  -4.5392  -4.0394  -2.9395
    -1.3201  -0.8123

          k = 0.4167 0.2406 0.0000 (  7484 PWs)   bands (ev):

   -10.7120  -9.7025  -8.0961  -6.9064  -6.1270  -5.4777  -4.1696  -3.4623
    -2.0579  -0.5859

          k = 0.4167-0.8179 0.0000 (  7492 PWs)   bands (ev):

    -9.7382  -8.7400  -7.8211  -7.2418  -6.7261  -5.1868  -4.7357  -2.9879
    -2.5514  -0.7169

          k = 0.4167-0.7217 0.0000 (  7532 PWs)   bands (ev):

    -8.4833  -8.4207  -7.5005  -7.4596  -6.0995  -5.4903  -3.7463  -3.6402
    -2.6204  -1.6375

          k = 0.4167-0.6255 0.0000 (  7533 PWs)   bands (ev):

    -8.7707  -7.7831  -6.8696  -6.3176  -5.7895  -5.0351  -4.3104  -4.2454
    -3.3440  -2.2567

          k = 0.4167-0.5292 0.0000 (  7533 PWs)   bands (ev):

    -8.7707  -7.7831  -6.8696  -6.3176  -5.7895  -5.0351  -4.3104  -4.2454
    -3.3440  -2.2566

          k = 0.4167-0.4330 0.0000 (  7532 PWs)   bands (ev):

    -8.4833  -8.4207  -7.5005  -7.4596  -6.0995  -5.4903  -3.7464  -3.6405
    -2.6207  -1.6378

          k = 0.4167-0.3368 0.0000 (  7492 PWs)   bands (ev):

    -9.7382  -8.7400  -7.8211  -7.2418  -6.7261  -5.1868  -4.7357  -2.9879
    -2.5513  -0.7163

          k =-0.5000 0.2887 0.0000 (  7472 PWs)   bands (ev):

    -8.9634  -8.9040  -7.9735  -7.9392  -6.5624  -5.9610  -4.1293  -3.9496
    -1.9326  -1.5810

          k =-0.5000 0.3849 0.0000 (  7492 PWs)   bands (ev):

    -9.7382  -8.7400  -7.8211  -7.2418  -6.7261  -5.1868  -4.7357  -2.9880
    -2.5513  -0.7195

          k =-0.5000 0.4811 0.0000 (  7536 PWs)   bands (ev):

   -10.2237  -9.2179  -7.6202  -6.4334  -5.6661  -5.0236  -3.7416  -3.0859
    -2.5766  -1.7984

          k =-0.5000 0.5774 0.0000 (  7531 PWs)   bands (ev):

   -10.3860  -9.3783  -7.7698  -5.7250  -4.7450  -4.5295  -3.7137  -3.5086
    -3.0272  -2.2502

          k =-0.5000 0.6736 0.0000 (  7536 PWs)   bands (ev):

   -10.2237  -9.2179  -7.6202  -6.4334  -5.6661  -5.0236  -3.7416  -3.0859
    -2.5766  -1.7977

          k =-0.5000 0.7698 0.0000 (  7492 PWs)   bands (ev):

    -9.7382  -8.7400  -7.8211  -7.2418  -6.7261  -5.1868  -4.7357  -2.9880
    -2.5513  -0.7165

          k =-0.5000-0.2887 0.0000 (  7472 PWs)   bands (ev):

    -8.9634  -8.9040  -7.9735  -7.9392  -6.5624  -5.9610  -4.1293  -3.9496
    -1.9328  -1.5810

     the Fermi energy is    -4.0376 ev

!    total energy              =     -26.77554084 Ry
     estimated scf accuracy    <          8.7E-09 Ry
     smearing contrib. (-TS)   =      -0.00004338 Ry
     internal energy E=F+TS    =     -26.77549747 Ry

     The total energy is F=E-TS. E is the sum of the following terms:
     one-electron contribution =     429.96024674 Ry
     hartree contribution      =    -214.25436740 Ry
     xc contribution           =     -17.00759895 Ry
     ewald contribution        =    -225.47377786 Ry

     convergence has been achieved in  21 iterations

     Writing all to output data dir ./tmp/Al4.save/
 
     init_run     :      1.54s CPU      1.72s WALL (       1 calls)
     electrons    :     64.45s CPU     65.55s WALL (       1 calls)

     Called by init_run:
     wfcinit      :      0.70s CPU      0.78s WALL (       1 calls)
     potinit      :      0.25s CPU      0.27s WALL (       1 calls)
     hinit0       :      0.51s CPU      0.57s WALL (       1 calls)

     Called by electrons:
     c_bands      :     54.38s CPU     54.62s WALL (      21 calls)
     sum_band     :      5.36s CPU      5.47s WALL (      21 calls)
     v_of_rho     :      3.48s CPU      3.70s WALL (      22 calls)
     newd         :      0.60s CPU      0.70s WALL (      22 calls)
     mix_rho      :      0.47s CPU      0.49s WALL (      21 calls)

     Called by c_bands:
     init_us_2    :      0.54s CPU      0.55s WALL (     473 calls)
     init_us_2:cp :      0.54s CPU      0.55s WALL (     473 calls)
     cegterg      :     36.98s CPU     37.13s WALL (     231 calls)

     Called by *egterg:
     cdiaghg      :      0.22s CPU      0.24s WALL (    1911 calls)
     h_psi        :     32.55s CPU     32.74s WALL (    1922 calls)
     s_psi        :      0.93s CPU      0.94s WALL (    1922 calls)
     g_psi        :      0.18s CPU      0.18s WALL (    1680 calls)

     Called by h_psi:
     h_psi:calbec :      1.01s CPU      1.02s WALL (    1922 calls)
     vloc_psi     :     30.47s CPU     30.58s WALL (    1922 calls)
     add_vuspsi   :      0.99s CPU      1.07s WALL (    1922 calls)

     General routines
     calbec       :      1.16s CPU      1.17s WALL (    2153 calls)
     fft          :      1.79s CPU      1.80s WALL (     284 calls)
     ffts         :      0.07s CPU      0.07s WALL (      43 calls)
     fftw         :     32.38s CPU     32.49s WALL (   20650 calls)
     interpolate  :      0.20s CPU      0.22s WALL (      22 calls)
 
     Parallel routines
 
     PWSCF        :   1m 6.07s CPU   1m 7.56s WALL

 
   This run was terminated on:   4:10:25  11Jun2026            

=------------------------------------------------------------------------------=
   JOB DONE.
=------------------------------------------------------------------------------=
