
     Program BANDS v.7.1 starts on 31May2026 at 22:27:48 

     This program is part of the open-source Quantum ESPRESSO suite
     for quantum simulation of materials; please cite
         "P. Giannozzi et al., J. Phys.:Condens. Matter 21 395502 (2009);
         "P. Giannozzi et al., J. Phys.:Condens. Matter 29 465901 (2017);
         "P. Giannozzi et al., J. Chem. Phys. 152 154105 (2020);
          URL http://www.quantum-espresso.org", 
     in publications or presentations arising from this work. More details at
     http://www.quantum-espresso.org/quote

     Parallel version (MPI & OpenMP), running on       7 processor cores
     Number of MPI processes:                 7
     Threads/MPI process:                     1

     MPI processes distributed on     7 nodes
     R & G space division:  proc/nbgrp/npool/nimage =       7
     223371 MiB available memory on the printing compute node when the environment starts
 

     Reading xml data from directory:

     ./data/scf.save/

     IMPORTANT: XC functional enforced from input :
     Exchange-correlation= PBE
                           (   1   4   3   4   0   0   0)
     Any further DFT definition will be discarded
     Please, verify this is what you really want

 
     Parallelization info
     --------------------
     sticks:   dense  smooth     PW     G-vecs:    dense   smooth      PW
     Min         227      89     28                 5733     1428     249
     Max         228      90     29                 5735     1430     250
     Sum        1595     627    201                40143    10005    1745
 
     Using Slab Decomposition
 
     Reading collected, re-writing distributed wavefunctions
     high-symmetry point:  0.4330 0.4330 0.4330   x coordinate   0.0000
     high-symmetry point:  0.0000 0.0000 0.0000   x coordinate   0.7500
     high-symmetry point:  0.4330 0.0000 0.4330   x coordinate   1.3624
     high-symmetry point:  0.8660 0.0000 0.0000   x coordinate   1.9747
     high-symmetry point:  0.0000 0.0000 0.0000   x coordinate   2.8408

     Plottable bands (eV) written to file bccNa.bands.dat.gnu
     Bands written to file bccNa.bands.dat

 **************************************************************************

                    xk=(   0.43301,   0.43301,   0.43301  )

     point group T_d (-43m) 
     there are  5 classes
     the character table:

       E     8C3   3C2   6S4   6s_d 
A_1    1.00  1.00  1.00  1.00  1.00
A_2    1.00  1.00  1.00 -1.00 -1.00
E      2.00 -1.00  2.00  0.00  0.00
T_1    3.00  0.00 -1.00  1.00 -1.00
T_2    3.00  0.00 -1.00 -1.00  1.00

     the symmetry operations in each class and the name of the first element:

     E        1
                                                                 
     8C3      5    7    8    6   12    9   10   11
                                                                 
     3C2      2    3    4
                                                                 
     6S4     15   16   20   19   23   24
                                                                 
     6s_d    13   14   17   18   21   22
                                                                 

     Band symmetry, T_d (-43m)  point group:

     e(  1 -  1) =    -51.36250  eV     1   --> A_1  G_1  P_1  
     e(  2 -  4) =    -23.28733  eV     3   --> T_2  G_15 P_4  
     e(  5 -  7) =      4.35859  eV     3   --> T_2  G_15 P_4  
     e(  8 -  8) =      6.04347  eV     1   --> A_1  G_1  P_1  
     e(  9 - 10) =     19.06137  eV     2   --> E    G_12 P_3  
     e( 11 - 13) =     19.98180  eV     3   --> T_2  G_15 P_4  
     e( 14 - 16) =     21.46715  eV     3   --> T_1  G_25 P_5  
     e( 17 - 19) =     21.79692  eV     3   --> T_2  G_15 P_4  
     e( 20 - 20) =     27.14596  eV     1   --> A_1  G_1  P_1  

 **************************************************************************

 **************************************************************************

                    xk=(   0.43121,   0.43121,   0.43121  )

     point group C_3v (3m)  
     there are  3 classes
     the character table:

       E     2C3   3s_v 
A_1    1.00  1.00  1.00
A_2    1.00  1.00 -1.00
E      2.00 -1.00  0.00

     the symmetry operations in each class and the name of the first element:

     E        1
                                                                 
     2C3      2    3
                                                                 
     3s_v     4    5    6
                                                                 

     Band symmetry, C_3v (3m)   point group:

     e(  1 -  1) =    -51.36250  eV     1   --> A_1  L_1       
     e(  2 -  2) =    -23.28757  eV     1   --> A_1  L_1       
     e(  3 -  4) =    -23.28721  eV     2   --> E    L_3       
     e(  5 -  5) =      4.32514  eV     1   --> A_1  L_1       
     e(  6 -  7) =      4.37518  eV     2   --> E    L_3       
     e(  8 -  8) =      6.04415  eV     1   --> A_1  L_1       
     e(  9 - 10) =     19.06029  eV     2   --> E    L_3       
     e( 11 - 12) =     19.95746  eV     2   --> E    L_3       
     e( 13 - 13) =     20.02824  eV     1   --> A_1  L_1       
     e( 14 - 14) =     21.41373  eV     1   --> A_2  L_2       
     e( 15 - 16) =     21.49355  eV     2   --> E    L_3       
     e( 17 - 17) =     21.79001  eV     1   --> A_1  L_1       
     e( 18 - 19) =     21.80317  eV     2   --> E    L_3       
     e( 20 - 20) =     27.14654  eV     1   --> A_1  L_1       

 **************************************************************************

 **************************************************************************

                    xk=(   0.42940,   0.42940,   0.42940  )

     Band symmetry, C_3v (3m)   point group:

     e(  1 -  1) =    -51.36250  eV     1   --> A_1  L_1       
     e(  2 -  2) =    -23.28781  eV     1   --> A_1  L_1       
     e(  3 -  4) =    -23.28709  eV     2   --> E    L_3       
     e(  5 -  5) =      4.29080  eV     1   --> A_1  L_1       
     e(  6 -  7) =      4.39198  eV     2   --> E    L_3       
     e(  8 -  8) =      6.04613  eV     1   --> A_1  L_1       
     e(  9 - 10) =     19.05711  eV     2   --> E    L_3       
     e( 11 - 12) =     19.93110  eV     2   --> E    L_3       
     e( 13 - 13) =     20.07448  eV     1   --> A_1  L_1       
     e( 14 - 14) =     21.36053  eV     1   --> A_2  L_2       
     e( 15 - 16) =     21.51811  eV     2   --> E    L_3       
     e( 17 - 17) =     21.78251  eV     1   --> A_1  L_1       
     e( 18 - 19) =     21.81616  eV     2   --> E    L_3       
     e( 20 - 20) =     27.14827  eV     1   --> A_1  L_1       

 **************************************************************************

 **************************************************************************

                    xk=(   0.42760,   0.42760,   0.42760  )

     Band symmetry, C_3v (3m)   point group:

     e(  1 -  1) =    -51.36250  eV     1   --> A_1  L_1       
     e(  2 -  2) =    -23.28805  eV     1   --> A_1  L_1       
     e(  3 -  4) =    -23.28697  eV     2   --> E    L_3       
     e(  5 -  5) =      4.25563  eV     1   --> A_1  L_1       
     e(  6 -  7) =      4.40899  eV     2   --> E    L_3       
     e(  8 -  8) =      6.04934  eV     1   --> A_1  L_1       
     e(  9 - 10) =     19.05197  eV     2   --> E    L_3       
     e( 11 - 12) =     19.90294  eV     2   --> E    L_3       
     e( 13 - 13) =     20.12051  eV     1   --> A_1  L_1       
     e( 14 - 14) =     21.30755  eV     1   --> A_2  L_2       
     e( 15 - 16) =     21.53939  eV     2   --> E    L_3       
     e( 17 - 17) =     21.77442  eV     1   --> A_1  L_1       
     e( 18 - 19) =     21.83702  eV     2   --> E    L_3       
     e( 20 - 20) =     27.15118  eV     1   --> A_1  L_1       

 **************************************************************************

 **************************************************************************

                    xk=(   0.42580,   0.42580,   0.42580  )

     Band symmetry, C_3v (3m)   point group:

     e(  1 -  1) =    -51.36250  eV     1   --> A_1  L_1       
     e(  2 -  2) =    -23.28829  eV     1   --> A_1  L_1       
     e(  3 -  4) =    -23.28685  eV     2   --> E    L_3       
     e(  5 -  5) =      4.21969  eV     1   --> A_1  L_1       
     e(  6 -  7) =      4.42620  eV     2   --> E    L_3       
     e(  8 -  8) =      6.05373  eV     1   --> A_1  L_1       
     e(  9 - 10) =     19.04498  eV     2   --> E    L_3       
     e( 11 - 12) =     19.87315  eV     2   --> E    L_3       
     e( 13 - 13) =     20.16634  eV     1   --> A_1  L_1       
     e( 14 - 14) =     21.25480  eV     1   --> A_2  L_2       
     e( 15 - 16) =     21.55654  eV     2   --> E    L_3       
     e( 17 - 17) =     21.76572  eV     1   --> A_1  L_1       
     e( 18 - 19) =     21.86630  eV     2   --> E    L_3       
     e( 20 - 20) =     27.15526  eV     1   --> A_1  L_1       

 **************************************************************************

 **************************************************************************

                    xk=(   0.42399,   0.42399,   0.42399  )

     Band symmetry, C_3v (3m)   point group:

     e(  1 -  1) =    -51.36250  eV     1   --> A_1  L_1       
     e(  2 -  2) =    -23.28853  eV     1   --> A_1  L_1       
     e(  3 -  4) =    -23.28672  eV     2   --> E    L_3       
     e(  5 -  5) =      4.18306  eV     1   --> A_1  L_1       
     e(  6 -  7) =      4.44363  eV     2   --> E    L_3       
     e(  8 -  8) =      6.05922  eV     1   --> A_1  L_1       
     e(  9 - 10) =     19.03626  eV     2   --> E    L_3       
     e( 11 - 12) =     19.84194  eV     2   --> E    L_3       
     e( 13 - 13) =     20.21197  eV     1   --> A_1  L_1       
     e( 14 - 14) =     21.20227  eV     1   --> A_2  L_2       
     e( 15 - 16) =     21.56952  eV     2   --> E    L_3       
     e( 17 - 17) =     21.75643  eV     1   --> A_1  L_1       
     e( 18 - 19) =     21.90370  eV     2   --> E    L_3       
     e( 20 - 20) =     27.16052  eV     1   --> A_1  L_1       

 **************************************************************************

 **************************************************************************

                    xk=(   0.42219,   0.42219,   0.42219  )

     Band symmetry, C_3v (3m)   point group:

     e(  1 -  1) =    -51.36250  eV     1   --> A_1  L_1       
     e(  2 -  2) =    -23.28876  eV     1   --> A_1  L_1       
     e(  3 -  4) =    -23.28660  eV     2   --> E    L_3       
     e(  5 -  5) =      4.14577  eV     1   --> A_1  L_1       
     e(  6 -  7) =      4.46126  eV     2   --> E    L_3       
     e(  8 -  8) =      6.06578  eV     1   --> A_1  L_1       
     e(  9 - 10) =     19.02590  eV     2   --> E    L_3       
     e( 11 - 12) =     19.80948  eV     2   --> E    L_3       
     e( 13 - 13) =     20.25738  eV     1   --> A_1  L_1       
     e( 14 - 14) =     21.14996  eV     1   --> A_2  L_2       
     e( 15 - 16) =     21.57901  eV     2   --> E    L_3       
     e( 17 - 17) =     21.74653  eV     1   --> A_1  L_1       
     e( 18 - 19) =     21.94831  eV     2   --> E    L_3       
     e( 20 - 20) =     27.16697  eV     1   --> A_1  L_1       

 **************************************************************************

 **************************************************************************

                    xk=(   0.42038,   0.42038,   0.42038  )

     Band symmetry, C_3v (3m)   point group:

     e(  1 -  1) =    -51.36250  eV     1   --> A_1  L_1       
     e(  2 -  2) =    -23.28900  eV     1   --> A_1  L_1       
     e(  3 -  4) =    -23.28648  eV     2   --> E    L_3       
     e(  5 -  5) =      4.10790  eV     1   --> A_1  L_1       
     e(  6 -  7) =      4.47910  eV     2   --> E    L_3       
     e(  8 -  8) =      6.07332  eV     1   --> A_1  L_1       
     e(  9 - 10) =     19.01400  eV     2   --> E    L_3       
     e( 11 - 12) =     19.77592  eV     2   --> E    L_3       
     e( 13 - 13) =     20.30258  eV     1   --> A_1  L_1       
     e( 14 - 14) =     21.09787  eV     1   --> A_2  L_2       
     e( 15 - 16) =     21.58590  eV     2   --> E    L_3       
     e( 17 - 17) =     21.73604  eV     1   --> A_1  L_1       
     e( 18 - 19) =     21.99894  eV     2   --> E    L_3       
     e( 20 - 20) =     27.17460  eV     1   --> A_1  L_1       

 **************************************************************************

 **************************************************************************

                    xk=(   0.41858,   0.41858,   0.41858  )

     Band symmetry, C_3v (3m)   point group:

     e(  1 -  1) =    -51.36251  eV     1   --> A_1  L_1       
     e(  2 -  2) =    -23.28923  eV     1   --> A_1  L_1       
     e(  3 -  4) =    -23.28636  eV     2   --> E    L_3       
     e(  5 -  5) =      4.06949  eV     1   --> A_1  L_1       
     e(  6 -  7) =      4.49715  eV     2   --> E    L_3       
     e(  8 -  8) =      6.08182  eV     1   --> A_1  L_1       
     e(  9 - 10) =     19.00067  eV     2   --> E    L_3       
     e( 11 - 12) =     19.74141  eV     2   --> E    L_3       
     e( 13 - 13) =     20.34756  eV     1   --> A_1  L_1       
     e( 14 - 14) =     21.04601  eV     1   --> A_2  L_2       
     e( 15 - 16) =     21.59105  eV     2   --> E    L_3       
     e( 17 - 17) =     21.72495  eV     1   --> A_1  L_1       
     e( 18 - 19) =     22.05452  eV     2   --> E    L_3       
     e( 20 - 20) =     27.18343  eV     1   --> A_1  L_1       

 **************************************************************************

 **************************************************************************

                    xk=(   0.41677,   0.41677,   0.41677  )

     Band symmetry, C_3v (3m)   point group:

     e(  1 -  1) =    -51.36251  eV     1   --> A_1  L_1       
     e(  2 -  2) =    -23.28947  eV     1   --> A_1  L_1       
     e(  3 -  4) =    -23.28623  eV     2   --> E    L_3       
     e(  5 -  5) =      4.03059  eV     1   --> A_1  L_1       
     e(  6 -  7) =      4.51541  eV     2   --> E    L_3       
     e(  8 -  8) =      6.09120  eV     1   --> A_1  L_1       
     e(  9 - 10) =     18.98598  eV     2   --> E    L_3       
     e( 11 - 12) =     19.70609  eV     2   --> E    L_3       
     e( 13 - 13) =     20.39232  eV     1   --> A_1  L_1       
     e( 14 - 14) =     20.99437  eV     1   --> A_2  L_2       
     e( 15 - 16) =     21.59515  eV     2   --> E    L_3       
     e( 17 - 17) =     21.71327  eV     1   --> A_1  L_1       
     e( 18 - 19) =     22.11412  eV     2   --> E    L_3       
     e( 20 - 20) =     27.19344  eV     1   --> A_1  L_1       

 **************************************************************************

 **************************************************************************

                    xk=(   0.41497,   0.41497,   0.41497  )

     Band symmetry, C_3v (3m)   point group:

     e(  1 -  1) =    -51.36251  eV     1   --> A_1  L_1       
     e(  2 -  2) =    -23.28970  eV     1   --> A_1  L_1       
     e(  3 -  4) =    -23.28611  eV     2   --> E    L_3       
     e(  5 -  5) =      3.99126  eV     1   --> A_1  L_1       
     e(  6 -  7) =      4.53387  eV     2   --> E    L_3       
     e(  8 -  8) =      6.10143  eV     1   --> A_1  L_1       
     e(  9 - 10) =     18.97001  eV     2   --> E    L_3       
     e( 11 - 12) =     19.67008  eV     2   --> E    L_3       
     e( 13 - 13) =     20.43684  eV     1   --> A_1  L_1       
     e( 14 - 14) =     20.94295  eV     1   --> A_2  L_2       
     e( 15 - 16) =     21.59870  eV     2   --> E    L_3       
     e( 17 - 17) =     21.70101  eV     1   --> A_1  L_1       
     e( 18 - 19) =     22.17706  eV     2   --> E    L_3       
     e( 20 - 20) =     27.20465  eV     1   --> A_1  L_1       

 **************************************************************************

 **************************************************************************

                    xk=(   0.41317,   0.41317,   0.41317  )

     Band symmetry, C_3v (3m)   point group:

     e(  1 -  1) =    -51.36251  eV     1   --> A_1  L_1       
     e(  2 -  2) =    -23.28993  eV     1   --> A_1  L_1       
     e(  3 -  4) =    -23.28599  eV     2   --> E    L_3       
     e(  5 -  5) =      3.95152  eV     1   --> A_1  L_1       
     e(  6 -  7) =      4.55254  eV     2   --> E    L_3       
     e(  8 -  8) =      6.11247  eV     1   --> A_1  L_1       
     e(  9 - 10) =     18.95285  eV     2   --> E    L_3       
     e( 11 - 12) =     19.63347  eV     2   --> E    L_3       
     e( 13 - 13) =     20.48112  eV     1   --> A_1  L_1       
     e( 14 - 14) =     20.89176  eV     1   --> A_2  L_2       
     e( 15 - 16) =     21.60206  eV     2   --> E    L_3       
     e( 17 - 17) =     21.68818  eV     1   --> A_1  L_1       
     e( 18 - 19) =     22.24279  eV     2   --> E    L_3       
     e( 20 - 20) =     27.21705  eV     1   --> A_1  L_1       

 **************************************************************************

 **************************************************************************

                    xk=(   0.41136,   0.41136,   0.41136  )

     Band symmetry, C_3v (3m)   point group:

     e(  1 -  1) =    -51.36251  eV     1   --> A_1  L_1       
     e(  2 -  2) =    -23.29015  eV     1   --> A_1  L_1       
     e(  3 -  4) =    -23.28586  eV     2   --> E    L_3       
     e(  5 -  5) =      3.91143  eV     1   --> A_1  L_1       
     e(  6 -  7) =      4.57142  eV     2   --> E    L_3       
     e(  8 -  8) =      6.12426  eV     1   --> A_1  L_1       
     e(  9 - 10) =     18.93455  eV     2   --> E    L_3       
     e( 11 - 12) =     19.59637  eV     2   --> E    L_3       
     e( 13 - 13) =     20.52518  eV     1   --> A_1  L_1       
     e( 14 - 14) =     20.84079  eV     1   --> A_2  L_2       
     e( 15 - 16) =     21.60547  eV     2   --> E    L_3       
     e( 17 - 17) =     21.67480  eV     1   --> A_1  L_1       
     e( 18 - 19) =     22.31090  eV     2   --> E    L_3       
     e( 20 - 20) =     27.23066  eV     1   --> A_1  L_1       

 **************************************************************************

 **************************************************************************

                    xk=(   0.40956,   0.40956,   0.40956  )

     Band symmetry, C_3v (3m)   point group:

     e(  1 -  1) =    -51.36251  eV     1   --> A_1  L_1       
     e(  2 -  2) =    -23.29036  eV     1   --> A_1  L_1       
     e(  3 -  4) =    -23.28574  eV     2   --> E    L_3       
     e(  5 -  5) =      3.87103  eV     1   --> A_1  L_1       
     e(  6 -  7) =      4.59051  eV     2   --> E    L_3       
     e(  8 -  8) =      6.13678  eV     1   --> A_1  L_1       
     e(  9 - 10) =     18.91519  eV     2   --> E    L_3       
     e( 11 - 12) =     19.55887  eV     2   --> E    L_3       
     e( 13 - 13) =     20.56895  eV     1   --> A_1  L_1       
     e( 14 - 14) =     20.79004  eV     1   --> A_2  L_2       
     e( 15 - 16) =     21.60910  eV     2   --> E    L_3       
     e( 17 - 17) =     21.66087  eV     1   --> A_1  L_1       
     e( 18 - 19) =     22.38109  eV     2   --> E    L_3       
     e( 20 - 20) =     27.24545  eV     1   --> A_1  L_1       

 **************************************************************************

 **************************************************************************

                    xk=(   0.40775,   0.40775,   0.40775  )

     Band symmetry, C_3v (3m)   point group:

     e(  1 -  1) =    -51.36251  eV     1   --> A_1  L_1       
     e(  2 -  2) =    -23.29059  eV     1   --> A_1  L_1       
     e(  3 -  4) =    -23.28561  eV     2   --> E    L_3       
     e(  5 -  5) =      3.83034  eV     1   --> A_1  L_1       
     e(  6 -  7) =      4.60981  eV     2   --> E    L_3       
     e(  8 -  8) =      6.14999  eV     1   --> A_1  L_1       
     e(  9 - 10) =     18.89481  eV     2   --> E    L_3       
     e( 11 - 12) =     19.52102  eV     2   --> E    L_3       
     e( 13 - 13) =     20.61243  eV     1   --> A_1  L_1       
     e( 14 - 14) =     20.73951  eV     1   --> A_2  L_2       
     e( 15 - 16) =     21.61308  eV     2   --> E    L_3       
     e( 17 - 17) =     21.64642  eV     1   --> A_1  L_1       
     e( 18 - 19) =     22.45308  eV     2   --> E    L_3       
     e( 20 - 20) =     27.26140  eV     1   --> A_1  L_1       

 **************************************************************************

 **************************************************************************

                    xk=(   0.40595,   0.40595,   0.40595  )

     Band symmetry, C_3v (3m)   point group:

     e(  1 -  1) =    -51.36251  eV     1   --> A_1  L_1       
     e(  2 -  2) =    -23.29081  eV     1   --> A_1  L_1       
     e(  3 -  4) =    -23.28549  eV     2   --> E    L_3       
     e(  5 -  5) =      3.78939  eV     1   --> A_1  L_1       
     e(  6 -  7) =      4.62932  eV     2   --> E    L_3       
     e(  8 -  8) =      6.16385  eV     1   --> A_1  L_1       
     e(  9 - 10) =     18.87348  eV     2   --> E    L_3       
     e( 11 - 12) =     19.48292  eV     2   --> E    L_3       
     e( 13 - 13) =     20.65561  eV     1   --> A_1  L_1       
     e( 14 - 14) =     20.68921  eV     1   --> A_2  L_2       
     e( 15 - 16) =     21.61748  eV     2   --> E    L_3       
     e( 17 - 17) =     21.63148  eV     1   --> A_1  L_1       
     e( 18 - 19) =     22.52667  eV     2   --> E    L_3       
     e( 20 - 20) =     27.27852  eV     1   --> A_1  L_1       

 **************************************************************************

 **************************************************************************

                    xk=(   0.40415,   0.40415,   0.40415  )

     Band symmetry, C_3v (3m)   point group:

     e(  1 -  1) =    -51.36251  eV     1   --> A_1  L_1       
     e(  2 -  2) =    -23.29104  eV     1   --> A_1  L_1       
     e(  3 -  4) =    -23.28536  eV     2   --> E    L_3       
     e(  5 -  5) =      3.74823  eV     1   --> A_1  L_1       
     e(  6 -  7) =      4.64903  eV     2   --> E    L_3       
     e(  8 -  8) =      6.17834  eV     1   --> A_1  L_1       
     e(  9 - 10) =     18.85124  eV     2   --> E    L_3       
     e( 11 - 12) =     19.44461  eV     2   --> E    L_3       
     e( 13 - 13) =     20.63913  eV     1   --> A_2  L_2       
     e( 14 - 14) =     20.69846  eV     1   --> A_1  L_1       
     e( 15 - 15) =     21.61608  eV     1   --> A_1  L_1       
     e( 16 - 17) =     21.62236  eV     2   --> E    L_3       
     e( 18 - 19) =     22.60170  eV     2   --> E    L_3       
     e( 20 - 20) =     27.29682  eV     1   --> A_1  L_1       

 **************************************************************************

 **************************************************************************

                    xk=(   0.40234,   0.40234,   0.40234  )

     Band symmetry, C_3v (3m)   point group:

     e(  1 -  1) =    -51.36251  eV     1   --> A_1  L_1       
     e(  2 -  2) =    -23.29126  eV     1   --> A_1  L_1       
     e(  3 -  4) =    -23.28524  eV     2   --> E    L_3       
     e(  5 -  5) =      3.70687  eV     1   --> A_1  L_1       
     e(  6 -  7) =      4.66896  eV     2   --> E    L_3       
     e(  8 -  8) =      6.19343  eV     1   --> A_1  L_1       
     e(  9 - 10) =     18.82815  eV     2   --> E    L_3       
     e( 11 - 12) =     19.40615  eV     2   --> E    L_3       
     e( 13 - 13) =     20.58927  eV     1   --> A_2  L_2       
     e( 14 - 14) =     20.74095  eV     1   --> A_1  L_1       
     e( 15 - 15) =     21.60027  eV     1   --> A_1  L_1       
     e( 16 - 17) =     21.62775  eV     2   --> E    L_3       
     e( 18 - 19) =     22.67802  eV     2   --> E    L_3       
     e( 20 - 20) =     27.31627  eV     1   --> A_1  L_1       

 **************************************************************************

 **************************************************************************

                    xk=(   0.40054,   0.40054,   0.40054  )

     Band symmetry, C_3v (3m)   point group:

     e(  1 -  1) =    -51.36251  eV     1   --> A_1  L_1       
     e(  2 -  2) =    -23.29148  eV     1   --> A_1  L_1       
     e(  3 -  4) =    -23.28511  eV     2   --> E    L_3       
     e(  5 -  5) =      3.66535  eV     1   --> A_1  L_1       
     e(  6 -  7) =      4.68909  eV     2   --> E    L_3       
     e(  8 -  8) =      6.20908  eV     1   --> A_1  L_1       
     e(  9 - 10) =     18.80424  eV     2   --> E    L_3       
     e( 11 - 12) =     19.36760  eV     2   --> E    L_3       
     e( 13 - 13) =     20.53964  eV     1   --> A_2  L_2       
     e( 14 - 14) =     20.78302  eV     1   --> A_1  L_1       
     e( 15 - 15) =     21.58410  eV     1   --> A_1  L_1       
     e( 16 - 17) =     21.63368  eV     2   --> E    L_3       
     e( 18 - 19) =     22.75552  eV     2   --> E    L_3       
     e( 20 - 20) =     27.33688  eV     1   --> A_1  L_1       

 **************************************************************************

 **************************************************************************

                    xk=(   0.39873,   0.39873,   0.39873  )

     Band symmetry, C_3v (3m)   point group:

     e(  1 -  1) =    -51.36251  eV     1   --> A_1  L_1       
     e(  2 -  2) =    -23.29170  eV     1   --> A_1  L_1       
     e(  3 -  4) =    -23.28499  eV     2   --> E    L_3       
     e(  5 -  5) =      3.62369  eV     1   --> A_1  L_1       
     e(  6 -  7) =      4.70943  eV     2   --> E    L_3       
     e(  8 -  8) =      6.22528  eV     1   --> A_1  L_1       
     e(  9 - 10) =     18.77956  eV     2   --> E    L_3       
     e( 11 - 12) =     19.32900  eV     2   --> E    L_3       
     e( 13 - 13) =     20.49023  eV     1   --> A_2  L_2       
     e( 14 - 14) =     20.82462  eV     1   --> A_1  L_1       
     e( 15 - 15) =     21.56763  eV     1   --> A_1  L_1       
     e( 16 - 17) =     21.64017  eV     2   --> E    L_3       
     e( 18 - 19) =     22.83410  eV     2   --> E    L_3       
     e( 20 - 20) =     27.35863  eV     1   --> A_1  L_1       

 **************************************************************************

 **************************************************************************

                    xk=(   0.39693,   0.39693,   0.39693  )

     Band symmetry, C_3v (3m)   point group:

     e(  1 -  1) =    -51.36251  eV     1   --> A_1  L_1       
     e(  2 -  2) =    -23.29191  eV     1   --> A_1  L_1       
     e(  3 -  4) =    -23.28486  eV     2   --> E    L_3       
     e(  5 -  5) =      3.58190  eV     1   --> A_1  L_1       
     e(  6 -  7) =      4.72998  eV     2   --> E    L_3       
     e(  8 -  8) =      6.24201  eV     1   --> A_1  L_1       
     e(  9 - 10) =     18.75414  eV     2   --> E    L_3       
     e( 11 - 12) =     19.29038  eV     2   --> E    L_3       
     e( 13 - 13) =     20.44104  eV     1   --> A_2  L_2       
     e( 14 - 14) =     20.86566  eV     1   --> A_1  L_1       
     e( 15 - 15) =     21.55097  eV     1   --> A_1  L_1       
     e( 16 - 17) =     21.64721  eV     2   --> E    L_3       
     e( 18 - 19) =     22.91367  eV     2   --> E    L_3       
     e( 20 - 20) =     27.38151  eV     1   --> A_1  L_1       

 **************************************************************************

 **************************************************************************

                    xk=(   0.39512,   0.39512,   0.39512  )

     Band symmetry, C_3v (3m)   point group:

     e(  1 -  1) =    -51.36251  eV     1   --> A_1  L_1       
     e(  2 -  2) =    -23.29213  eV     1   --> A_1  L_1       
     e(  3 -  4) =    -23.28474  eV     2   --> E    L_3       
     e(  5 -  5) =      3.54001  eV     1   --> A_1  L_1       
     e(  6 -  7) =      4.75074  eV     2   --> E    L_3       
     e(  8 -  8) =      6.25923  eV     1   --> A_1  L_1       
     e(  9 - 10) =     18.72802  eV     2   --> E    L_3       
     e( 11 - 12) =     19.25180  eV     2   --> E    L_3       
     e( 13 - 13) =     20.39207  eV     1   --> A_2  L_2       
     e( 14 - 14) =     20.90604  eV     1   --> A_1  L_1       
     e( 15 - 15) =     21.53424  eV     1   --> A_1  L_1       
     e( 16 - 17) =     21.65481  eV     2   --> E    L_3       
     e( 18 - 19) =     22.99416  eV     2   --> E    L_3       
     e( 20 - 20) =     27.40551  eV     1   --> A_1  L_1       

 **************************************************************************

 **************************************************************************

                    xk=(   0.39332,   0.39332,   0.39332  )

     Band symmetry, C_3v (3m)   point group:

     e(  1 -  1) =    -51.36252  eV     1   --> A_1  L_1       
     e(  2 -  2) =    -23.29234  eV     1   --> A_1  L_1       
     e(  3 -  4) =    -23.28461  eV     2   --> E    L_3       
     e(  5 -  5) =      3.49805  eV     1   --> A_1  L_1       
     e(  6 -  7) =      4.77171  eV     2   --> E    L_3       
     e(  8 -  8) =      6.27694  eV     1   --> A_1  L_1       
     e(  9 - 10) =     18.70123  eV     2   --> E    L_3       
     e( 11 - 12) =     19.21329  eV     2   --> E    L_3       
     e( 13 - 13) =     20.34333  eV     1   --> A_2  L_2       
     e( 14 - 14) =     20.94558  eV     1   --> A_1  L_1       
     e( 15 - 15) =     21.51760  eV     1   --> A_1  L_1       
     e( 16 - 17) =     21.66297  eV     2   --> E    L_3       
     e( 18 - 19) =     23.07550  eV     2   --> E    L_3       
     e( 20 - 20) =     27.43063  eV     1   --> A_1  L_1       

 **************************************************************************

 **************************************************************************

                    xk=(   0.39152,   0.39152,   0.39152  )

     Band symmetry, C_3v (3m)   point group:

     e(  1 -  1) =    -51.36252  eV     1   --> A_1  L_1       
     e(  2 -  2) =    -23.29255  eV     1   --> A_1  L_1       
     e(  3 -  4) =    -23.28449  eV     2   --> E    L_3       
     e(  5 -  5) =      3.45601  eV     1   --> A_1  L_1       
     e(  6 -  7) =      4.79288  eV     2   --> E    L_3       
     e(  8 -  8) =      6.29511  eV     1   --> A_1  L_1       
     e(  9 - 10) =     18.67380  eV     2   --> E    L_3       
     e( 11 - 12) =     19.17487  eV     2   --> E    L_3       
     e( 13 - 13) =     20.29481  eV     1   --> A_2  L_2       
     e( 14 - 14) =     20.98407  eV     1   --> A_1  L_1       
     e( 15 - 15) =     21.50131  eV     1   --> A_1  L_1       
     e( 16 - 17) =     21.67168  eV     2   --> E    L_3       
     e( 18 - 19) =     23.15764  eV     2   --> E    L_3       
     e( 20 - 20) =     27.45684  eV     1   --> A_1  L_1       

 **************************************************************************

 **************************************************************************

                    xk=(   0.38971,   0.38971,   0.38971  )

     Band symmetry, C_3v (3m)   point group:

     e(  1 -  1) =    -51.36252  eV     1   --> A_1  L_1       
     e(  2 -  2) =    -23.29276  eV     1   --> A_1  L_1       
     e(  3 -  4) =    -23.28436  eV     2   --> E    L_3       
     e(  5 -  5) =      3.41394  eV     1   --> A_1  L_1       
     e(  6 -  7) =      4.81427  eV     2   --> E    L_3       
     e(  8 -  8) =      6.31373  eV     1   --> A_1  L_1       
     e(  9 - 10) =     18.64576  eV     2   --> E    L_3       
     e( 11 - 12) =     19.13657  eV     2   --> E    L_3       
     e( 13 - 13) =     20.24651  eV     1   --> A_2  L_2       
     e( 14 - 14) =     21.02116  eV     1   --> A_1  L_1       
     e( 15 - 15) =     21.48570  eV     1   --> A_1  L_1       
     e( 16 - 17) =     21.68094  eV     2   --> E    L_3       
     e( 18 - 19) =     23.24052  eV     2   --> E    L_3       
     e( 20 - 20) =     27.48413  eV     1   --> A_1  L_1       

 **************************************************************************

 **************************************************************************

                    xk=(   0.38791,   0.38791,   0.38791  )

     Band symmetry, C_3v (3m)   point group:

     e(  1 -  1) =    -51.36252  eV     1   --> A_1  L_1       
     e(  2 -  2) =    -23.29296  eV     1   --> A_1  L_1       
     e(  3 -  4) =    -23.28424  eV     2   --> E    L_3       
     e(  5 -  5) =      3.37183  eV     1   --> A_1  L_1       
     e(  6 -  7) =      4.83586  eV     2   --> E    L_3       
     e(  8 -  8) =      6.33279  eV     1   --> A_1  L_1       
     e(  9 - 10) =     18.61714  eV     2   --> E    L_3       
     e( 11 - 12) =     19.09843  eV     2   --> E    L_3       
     e( 13 - 13) =     20.19844  eV     1   --> A_2  L_2       
     e( 14 - 14) =     21.05637  eV     1   --> A_1  L_1       
     e( 15 - 15) =     21.47129  eV     1   --> A_1  L_1       
     e( 16 - 17) =     21.69074  eV     2   --> E    L_3       
     e( 18 - 19) =     23.32409  eV     2   --> E    L_3       
     e( 20 - 20) =     27.51250  eV     1   --> A_1  L_1       

 **************************************************************************

 **************************************************************************

                    xk=(   0.38610,   0.38610,   0.38610  )

     Band symmetry, C_3v (3m)   point group:

     e(  1 -  1) =    -51.36252  eV     1   --> A_1  L_1       
     e(  2 -  2) =    -23.29316  eV     1   --> A_1  L_1       
     e(  3 -  4) =    -23.28411  eV     2   --> E    L_3       
     e(  5 -  5) =      3.32970  eV     1   --> A_1  L_1       
     e(  6 -  7) =      4.85767  eV     2   --> E    L_3       
     e(  8 -  8) =      6.35226  eV     1   --> A_1  L_1       
     e(  9 - 10) =     18.58795  eV     2   --> E    L_3       
     e( 11 - 12) =     19.06046  eV     2   --> E    L_3       
     e( 13 - 13) =     20.15059  eV     1   --> A_2  L_2       
     e( 14 - 14) =     21.08896  eV     1   --> A_1  L_1       
     e( 15 - 15) =     21.45880  eV     1   --> A_1  L_1       
     e( 16 - 17) =     21.70106  eV     2   --> E    L_3       
     e( 18 - 19) =     23.40832  eV     2   --> E    L_3       
     e( 20 - 20) =     27.54192  eV     1   --> A_1  L_1       

 **************************************************************************

 **************************************************************************

                    xk=(   0.38430,   0.38430,   0.38430  )

     Band symmetry, C_3v (3m)   point group:

     e(  1 -  1) =    -51.36252  eV     1   --> A_1  L_1       
     e(  2 -  2) =    -23.29336  eV     1   --> A_1  L_1       
     e(  3 -  4) =    -23.28399  eV     2   --> E    L_3       
     e(  5 -  5) =      3.28757  eV     1   --> A_1  L_1       
     e(  6 -  7) =      4.87968  eV     2   --> E    L_3       
     e(  8 -  8) =      6.37214  eV     1   --> A_1  L_1       
     e(  9 - 10) =     18.55823  eV     2   --> E    L_3       
     e( 11 - 12) =     19.02268  eV     2   --> E    L_3       
     e( 13 - 13) =     20.10296  eV     1   --> A_2  L_2       
     e( 14 - 14) =     21.11791  eV     1   --> A_1  L_1       
     e( 15 - 15) =     21.44930  eV     1   --> A_1  L_1       
     e( 16 - 17) =     21.71190  eV     2   --> E    L_3       
     e( 18 - 19) =     23.49318  eV     2   --> E    L_3       
     e( 20 - 20) =     27.57238  eV     1   --> A_1  L_1       

 **************************************************************************

 **************************************************************************

                    xk=(   0.38249,   0.38249,   0.38249  )

     Band symmetry, C_3v (3m)   point group:

     e(  1 -  1) =    -51.36253  eV     1   --> A_1  L_1       
     e(  2 -  2) =    -23.29357  eV     1   --> A_1  L_1       
     e(  3 -  4) =    -23.28387  eV     2   --> E    L_3       
     e(  5 -  5) =      3.24544  eV     1   --> A_1  L_1       
     e(  6 -  7) =      4.90190  eV     2   --> E    L_3       
     e(  8 -  8) =      6.39240  eV     1   --> A_1  L_1       
     e(  9 - 10) =     18.52800  eV     2   --> E    L_3       
     e( 11 - 12) =     18.98511  eV     2   --> E    L_3       
     e( 13 - 13) =     20.05555  eV     1   --> A_2  L_2       
     e( 14 - 14) =     21.14180  eV     1   --> A_1  L_1       
     e( 15 - 15) =     21.44420  eV     1   --> A_1  L_1       
     e( 16 - 17) =     21.72324  eV     2   --> E    L_3       
     e( 18 - 19) =     23.57862  eV     2   --> E    L_3       
     e( 20 - 20) =     27.60387  eV     1   --> A_1  L_1       

 **************************************************************************

 **************************************************************************

                    xk=(   0.38069,   0.38069,   0.38069  )

     Band symmetry, C_3v (3m)   point group:

     e(  1 -  1) =    -51.36253  eV     1   --> A_1  L_1       
     e(  2 -  2) =    -23.29376  eV     1   --> A_1  L_1       
     e(  3 -  4) =    -23.28374  eV     2   --> E    L_3       
     e(  5 -  5) =      3.20333  eV     1   --> A_1  L_1       
     e(  6 -  7) =      4.92433  eV     2   --> E    L_3       
     e(  8 -  8) =      6.41305  eV     1   --> A_1  L_1       
     e(  9 - 10) =     18.49728  eV     2   --> E    L_3       
     e( 11 - 12) =     18.94778  eV     2   --> E    L_3       
     e( 13 - 13) =     20.00837  eV     1   --> A_2  L_2       
     e( 14 - 14) =     21.15908  eV     1   --> A_1  L_1       
     e( 15 - 15) =     21.44507  eV     1   --> A_1  L_1       
     e( 16 - 17) =     21.73509  eV     2   --> E    L_3       
     e( 18 - 19) =     23.66462  eV     2   --> E    L_3       
     e( 20 - 20) =     27.63638  eV     1   --> A_1  L_1       

 **************************************************************************

 **************************************************************************

                    xk=(   0.37889,   0.37889,   0.37889  )

     Band symmetry, C_3v (3m)   point group:

     e(  1 -  1) =    -51.36253  eV     1   --> A_1  L_1       
     e(  2 -  2) =    -23.29395  eV     1   --> A_1  L_1       
     e(  3 -  4) =    -23.28362  eV     2   --> E    L_3       
     e(  5 -  5) =      3.16125  eV     1   --> A_1  L_1       
     e(  6 -  7) =      4.94697  eV     2   --> E    L_3       
     e(  8 -  8) =      6.43407  eV     1   --> A_1  L_1       
     e(  9 - 10) =     18.46610  eV     2   --> E    L_3       
     e( 11 - 12) =     18.91069  eV     2   --> E    L_3       
     e( 13 - 13) =     19.96141  eV     1   --> A_2  L_2       
     e( 14 - 14) =     21.16852  eV     1   --> A_1  L_1       
     e( 15 - 15) =     21.45316  eV     1   --> A_1  L_1       
     e( 16 - 17) =     21.74742  eV     2   --> E    L_3       
     e( 18 - 19) =     23.75115  eV     2   --> E    L_3       
     e( 20 - 20) =     27.66988  eV     1   --> A_1  L_1       

 **************************************************************************

 **************************************************************************

                    xk=(   0.37708,   0.37708,   0.37708  )

     Band symmetry, C_3v (3m)   point group:

     e(  1 -  1) =    -51.36253  eV     1   --> A_1  L_1       
     e(  2 -  2) =    -23.29414  eV     1   --> A_1  L_1       
     e(  3 -  4) =    -23.28349  eV     2   --> E    L_3       
     e(  5 -  5) =      3.11921  eV     1   --> A_1  L_1       
     e(  6 -  7) =      4.96982  eV     2   --> E    L_3       
     e(  8 -  8) =      6.45545  eV     1   --> A_1  L_1       
     e(  9 - 10) =     18.43447  eV     2   --> E    L_3       
     e( 11 - 12) =     18.87387  eV     2   --> E    L_3       
     e( 13 - 13) =     19.91468  eV     1   --> A_2  L_2       
     e( 14 - 14) =     21.16991  eV     1   --> A_1  L_1       
     e( 15 - 15) =     21.46869  eV     1   --> A_1  L_1       
     e( 16 - 17) =     21.76022  eV     2   --> E    L_3       
     e( 18 - 19) =     23.83819  eV     2   --> E    L_3       
     e( 20 - 20) =     27.70436  eV     1   --> A_1  L_1       

 **************************************************************************

 **************************************************************************

                    xk=(   0.37528,   0.37528,   0.37528  )

     Band symmetry, C_3v (3m)   point group:

     e(  1 -  1) =    -51.36253  eV     1   --> A_1  L_1       
     e(  2 -  2) =    -23.29433  eV     1   --> A_1  L_1       
     e(  3 -  4) =    -23.28337  eV     2   --> E    L_3       
     e(  5 -  5) =      3.07722  eV     1   --> A_1  L_1       
     e(  6 -  7) =      4.99288  eV     2   --> E    L_3       
     e(  8 -  8) =      6.47717  eV     1   --> A_1  L_1       
     e(  9 - 10) =     18.40241  eV     2   --> E    L_3       
     e( 11 - 12) =     18.83731  eV     2   --> E    L_3       
     e( 13 - 13) =     19.86816  eV     1   --> A_2  L_2       
     e( 14 - 14) =     21.16415  eV     1   --> A_1  L_1       
     e( 15 - 15) =     21.49077  eV     1   --> A_1  L_1       
     e( 16 - 17) =     21.77349  eV     2   --> E    L_3       
     e( 18 - 19) =     23.92571  eV     2   --> E    L_3       
     e( 20 - 20) =     27.73981  eV     1   --> A_1  L_1       

 **************************************************************************

 **************************************************************************

                    xk=(   0.37347,   0.37347,   0.37347  )

     Band symmetry, C_3v (3m)   point group:

     e(  1 -  1) =    -51.36254  eV     1   --> A_1  L_1       
     e(  2 -  2) =    -23.29451  eV     1   --> A_1  L_1       
     e(  3 -  4) =    -23.28324  eV     2   --> E    L_3       
     e(  5 -  5) =      3.03529  eV     1   --> A_1  L_1       
     e(  6 -  7) =      5.01615  eV     2   --> E    L_3       
     e(  8 -  8) =      6.49924  eV     1   --> A_1  L_1       
     e(  9 - 10) =     18.36995  eV     2   --> E    L_3       
     e( 11 - 12) =     18.80103  eV     2   --> E    L_3       
     e( 13 - 13) =     19.82187  eV     1   --> A_2  L_2       
     e( 14 - 14) =     21.15273  eV     1   --> A_1  L_1       
     e( 15 - 15) =     21.51794  eV     1   --> A_1  L_1       
     e( 16 - 17) =     21.78721  eV     2   --> E    L_3       
     e( 18 - 19) =     24.01370  eV     2   --> E    L_3       
     e( 20 - 20) =     27.77620  eV     1   --> A_1  L_1       

 **************************************************************************

 **************************************************************************

                    xk=(   0.37167,   0.37167,   0.37167  )

     Band symmetry, C_3v (3m)   point group:

     e(  1 -  1) =    -51.36254  eV     1   --> A_1  L_1       
     e(  2 -  2) =    -23.29469  eV     1   --> A_1  L_1       
     e(  3 -  4) =    -23.28312  eV     2   --> E    L_3       
     e(  5 -  5) =      2.99341  eV     1   --> A_1  L_1       
     e(  6 -  7) =      5.03962  eV     2   --> E    L_3       
     e(  8 -  8) =      6.52164  eV     1   --> A_1  L_1       
     e(  9 - 10) =     18.33710  eV     2   --> E    L_3       
     e( 11 - 12) =     18.76503  eV     2   --> E    L_3       
     e( 13 - 13) =     19.77580  eV     1   --> A_2  L_2       
     e( 14 - 14) =     21.13706  eV     1   --> A_1  L_1       
     e( 15 - 15) =     21.54877  eV     1   --> A_1  L_1       
     e( 16 - 17) =     21.80137  eV     2   --> E    L_3       
     e( 18 - 19) =     24.10213  eV     2   --> E    L_3       
     e( 20 - 20) =     27.81352  eV     1   --> A_1  L_1       

 **************************************************************************

 **************************************************************************

                    xk=(   0.36987,   0.36987,   0.36987  )

     Band symmetry, C_3v (3m)   point group:

     e(  1 -  1) =    -51.36254  eV     1   --> A_1  L_1       
     e(  2 -  2) =    -23.29486  eV     1   --> A_1  L_1       
     e(  3 -  4) =    -23.28299  eV     2   --> E    L_3       
     e(  5 -  5) =      2.95161  eV     1   --> A_1  L_1       
     e(  6 -  7) =      5.06331  eV     2   --> E    L_3       
     e(  8 -  8) =      6.54436  eV     1   --> A_1  L_1       
     e(  9 - 10) =     18.30390  eV     2   --> E    L_3       
     e( 11 - 12) =     18.72933  eV     2   --> E    L_3       
     e( 13 - 13) =     19.72996  eV     1   --> A_2  L_2       
     e( 14 - 14) =     21.11830  eV     1   --> A_1  L_1       
     e( 15 - 15) =     21.58216  eV     1   --> A_1  L_1       
     e( 16 - 17) =     21.81596  eV     2   --> E    L_3       
     e( 18 - 19) =     24.19098  eV     2   --> E    L_3       
     e( 20 - 20) =     27.85176  eV     1   --> A_1  L_1       

 **************************************************************************

 **************************************************************************

                    xk=(   0.36806,   0.36806,   0.36806  )

     Band symmetry, C_3v (3m)   point group:

     e(  1 -  1) =    -51.36254  eV     1   --> A_1  L_1       
     e(  2 -  2) =    -23.29503  eV     1   --> A_1  L_1       
     e(  3 -  4) =    -23.28287  eV     2   --> E    L_3       
     e(  5 -  5) =      2.90989  eV     1   --> A_1  L_1       
     e(  6 -  7) =      5.08721  eV     2   --> E    L_3       
     e(  8 -  8) =      6.56740  eV     1   --> A_1  L_1       
     e(  9 - 10) =     18.27036  eV     2   --> E    L_3       
     e( 11 - 12) =     18.69392  eV     2   --> E    L_3       
     e( 13 - 13) =     19.68434  eV     1   --> A_2  L_2       
     e( 14 - 14) =     21.09723  eV     1   --> A_1  L_1       
     e( 15 - 15) =     21.61732  eV     1   --> A_1  L_1       
     e( 16 - 17) =     21.83097  eV     2   --> E    L_3       
     e( 18 - 19) =     24.28024  eV     2   --> E    L_3       
     e( 20 - 20) =     27.89090  eV     1   --> A_1  L_1       

 **************************************************************************

 **************************************************************************

                    xk=(   0.36626,   0.36626,   0.36626  )

     Band symmetry, C_3v (3m)   point group:

     e(  1 -  1) =    -51.36255  eV     1   --> A_1  L_1       
     e(  2 -  2) =    -23.29520  eV     1   --> A_1  L_1       
     e(  3 -  4) =    -23.28274  eV     2   --> E    L_3       
     e(  5 -  5) =      2.86825  eV     1   --> A_1  L_1       
     e(  6 -  7) =      5.11131  eV     2   --> E    L_3       
     e(  8 -  8) =      6.59075  eV     1   --> A_1  L_1       
     e(  9 - 10) =     18.23649  eV     2   --> E    L_3       
     e( 11 - 12) =     18.65880  eV     2   --> E    L_3       
     e( 13 - 13) =     19.63894  eV     1   --> A_2  L_2       
     e( 14 - 14) =     21.07441  eV     1   --> A_1  L_1       
     e( 15 - 15) =     21.65371  eV     1   --> A_1  L_1       
     e( 16 - 17) =     21.84640  eV     2   --> E    L_3       
     e( 18 - 19) =     24.36990  eV     2   --> E    L_3       
     e( 20 - 20) =     27.93092  eV     1   --> A_1  L_1       

 **************************************************************************

 **************************************************************************

                    xk=(   0.36445,   0.36445,   0.36445  )

     Band symmetry, C_3v (3m)   point group:

     e(  1 -  1) =    -51.36255  eV     1   --> A_1  L_1       
     e(  2 -  2) =    -23.29537  eV     1   --> A_1  L_1       
     e(  3 -  4) =    -23.28262  eV     2   --> E    L_3       
     e(  5 -  5) =      2.82671  eV     1   --> A_1  L_1       
     e(  6 -  7) =      5.13563  eV     2   --> E    L_3       
     e(  8 -  8) =      6.61441  eV     1   --> A_1  L_1       
     e(  9 - 10) =     18.20233  eV     2   --> E    L_3       
     e( 11 - 12) =     18.62398  eV     2   --> E    L_3       
     e( 13 - 13) =     19.59376  eV     1   --> A_2  L_2       
     e( 14 - 14) =     21.05022  eV     1   --> A_1  L_1       
     e( 15 - 15) =     21.69097  eV     1   --> A_1  L_1       
     e( 16 - 17) =     21.86223  eV     2   --> E    L_3       
     e( 18 - 19) =     24.45994  eV     2   --> E    L_3       
     e( 20 - 20) =     27.97180  eV     1   --> A_1  L_1       

 **************************************************************************

 **************************************************************************

                    xk=(   0.36265,   0.36265,   0.36265  )

     Band symmetry, C_3v (3m)   point group:

     e(  1 -  1) =    -51.36255  eV     1   --> A_1  L_1       
     e(  2 -  2) =    -23.29553  eV     1   --> A_1  L_1       
     e(  3 -  4) =    -23.28249  eV     2   --> E    L_3       
     e(  5 -  5) =      2.78526  eV     1   --> A_1  L_1       
     e(  6 -  7) =      5.16016  eV     2   --> E    L_3       
     e(  8 -  8) =      6.63836  eV     1   --> A_1  L_1       
     e(  9 - 10) =     18.16789  eV     2   --> E    L_3       
     e( 11 - 12) =     18.58945  eV     2   --> E    L_3       
     e( 13 - 13) =     19.54881  eV     1   --> A_2  L_2       
     e( 14 - 14) =     21.02492  eV     1   --> A_1  L_1       
     e( 15 - 15) =     21.72884  eV     1   --> A_1  L_1       
     e( 16 - 17) =     21.87846  eV     2   --> E    L_3       
     e( 18 - 19) =     24.55034  eV     2   --> E    L_3       
     e( 20 - 20) =     28.01352  eV     1   --> A_1  L_1       

 **************************************************************************

 **************************************************************************

                    xk=(   0.36084,   0.36084,   0.36084  )

     Band symmetry, C_3v (3m)   point group:

     e(  1 -  1) =    -51.36256  eV     1   --> A_1  L_1       
     e(  2 -  2) =    -23.29568  eV     1   --> A_1  L_1       
     e(  3 -  4) =    -23.28237  eV     2   --> E    L_3       
     e(  5 -  5) =      2.74391  eV     1   --> A_1  L_1       
     e(  6 -  7) =      5.18489  eV     2   --> E    L_3       
     e(  8 -  8) =      6.66260  eV     1   --> A_1  L_1       
     e(  9 - 10) =     18.13319  eV     2   --> E    L_3       
     e( 11 - 12) =     18.55522  eV     2   --> E    L_3       
     e( 13 - 13) =     19.50408  eV     1   --> A_2  L_2       
     e( 14 - 14) =     20.99870  eV     1   --> A_1  L_1       
     e( 15 - 15) =     21.76715  eV     1   --> A_1  L_1       
     e( 16 - 17) =     21.89507  eV     2   --> E    L_3       
     e( 18 - 19) =     24.64109  eV     2   --> E    L_3       
     e( 20 - 20) =     28.05608  eV     1   --> A_1  L_1       

 **************************************************************************

 **************************************************************************

                    xk=(   0.35904,   0.35904,   0.35904  )

     Band symmetry, C_3v (3m)   point group:

     e(  1 -  1) =    -51.36256  eV     1   --> A_1  L_1       
     e(  2 -  2) =    -23.29584  eV     1   --> A_1  L_1       
     e(  3 -  4) =    -23.28225  eV     2   --> E    L_3       
     e(  5 -  5) =      2.70267  eV     1   --> A_1  L_1       
     e(  6 -  7) =      5.20984  eV     2   --> E    L_3       
     e(  8 -  8) =      6.68712  eV     1   --> A_1  L_1       
     e(  9 - 10) =     18.09825  eV     2   --> E    L_3       
     e( 11 - 12) =     18.52128  eV     2   --> E    L_3       
     e( 13 - 13) =     19.45957  eV     1   --> A_2  L_2       
     e( 14 - 14) =     20.97170  eV     1   --> A_1  L_1       
     e( 15 - 15) =     21.80578  eV     1   --> A_1  L_1       
     e( 16 - 17) =     21.91205  eV     2   --> E    L_3       
     e( 18 - 19) =     24.73218  eV     2   --> E    L_3       
     e( 20 - 20) =     28.09944  eV     1   --> A_1  L_1       

 **************************************************************************

 **************************************************************************

                    xk=(   0.35724,   0.35724,   0.35724  )

     Band symmetry, C_3v (3m)   point group:

     e(  1 -  1) =    -51.36256  eV     1   --> A_1  L_1       
     e(  2 -  2) =    -23.29599  eV     1   --> A_1  L_1       
     e(  3 -  4) =    -23.28212  eV     2   --> E    L_3       
     e(  5 -  5) =      2.66154  eV     1   --> A_1  L_1       
     e(  6 -  7) =      5.23499  eV     2   --> E    L_3       
     e(  8 -  8) =      6.71193  eV     1   --> A_1  L_1       
     e(  9 - 10) =     18.06310  eV     2   --> E    L_3       
     e( 11 - 12) =     18.48763  eV     2   --> E    L_3       
     e( 13 - 13) =     19.41529  eV     1   --> A_2  L_2       
     e( 14 - 14) =     20.94402  eV     1   --> A_1  L_1       
     e( 15 - 15) =     21.84464  eV     1   --> A_1  L_1       
     e( 16 - 17) =     21.92941  eV     2   --> E    L_3       
     e( 18 - 19) =     24.82359  eV     2   --> E    L_3       
     e( 20 - 20) =     28.14360  eV     1   --> A_1  L_1       

 **************************************************************************

 **************************************************************************

                    xk=(   0.35543,   0.35543,   0.35543  )

     Band symmetry, C_3v (3m)   point group:

     e(  1 -  1) =    -51.36257  eV     1   --> A_1  L_1       
     e(  2 -  2) =    -23.29613  eV     1   --> A_1  L_1       
     e(  3 -  4) =    -23.28200  eV     2   --> E    L_3       
     e(  5 -  5) =      2.62053  eV     1   --> A_1  L_1       
     e(  6 -  7) =      5.26036  eV     2   --> E    L_3       
     e(  8 -  8) =      6.73701  eV     1   --> A_1  L_1       
     e(  9 - 10) =     18.02775  eV     2   --> E    L_3       
     e( 11 - 12) =     18.45426  eV     2   --> E    L_3       
     e( 13 - 13) =     19.37123  eV     1   --> A_2  L_2       
     e( 14 - 14) =     20.91575  eV     1   --> A_1  L_1       
     e( 15 - 15) =     21.88365  eV     1   --> A_1  L_1       
     e( 16 - 17) =     21.94712  eV     2   --> E    L_3       
     e( 18 - 19) =     24.91532  eV     2   --> E    L_3       
     e( 20 - 20) =     28.18853  eV     1   --> A_1  L_1       

 **************************************************************************

 **************************************************************************

                    xk=(   0.35363,   0.35363,   0.35363  )

     Band symmetry, C_3v (3m)   point group:

     e(  1 -  1) =    -51.36257  eV     1   --> A_1  L_1       
     e(  2 -  2) =    -23.29628  eV     1   --> A_1  L_1       
     e(  3 -  4) =    -23.28188  eV     2   --> E    L_3       
     e(  5 -  5) =      2.57964  eV     1   --> A_1  L_1       
     e(  6 -  7) =      5.28593  eV     2   --> E    L_3       
     e(  8 -  8) =      6.76237  eV     1   --> A_1  L_1       
     e(  9 - 10) =     17.99221  eV     2   --> E    L_3       
     e( 11 - 12) =     18.42116  eV     2   --> E    L_3       
     e( 13 - 13) =     19.32739  eV     1   --> A_2  L_2       
     e( 14 - 14) =     20.88694  eV     1   --> A_1  L_1       
     e( 15 - 15) =     21.92278  eV     1   --> A_1  L_1       
     e( 16 - 17) =     21.96519  eV     2   --> E    L_3       
     e( 18 - 19) =     25.00735  eV     2   --> E    L_3       
     e( 20 - 20) =     28.23421  eV     1   --> A_1  L_1       

 **************************************************************************

 **************************************************************************

                    xk=(   0.35182,   0.35182,   0.35182  )

     Band symmetry, C_3v (3m)   point group:

     e(  1 -  1) =    -51.36258  eV     1   --> A_1  L_1       
     e(  2 -  2) =    -23.29642  eV     1   --> A_1  L_1       
     e(  3 -  4) =    -23.28176  eV     2   --> E    L_3       
     e(  5 -  5) =      2.53887  eV     1   --> A_1  L_1       
     e(  6 -  7) =      5.31172  eV     2   --> E    L_3       
     e(  8 -  8) =      6.78798  eV     1   --> A_1  L_1       
     e(  9 - 10) =     17.95653  eV     2   --> E    L_3       
     e( 11 - 12) =     18.38834  eV     2   --> E    L_3       
     e( 13 - 13) =     19.28377  eV     1   --> A_2  L_2       
     e( 14 - 14) =     20.85765  eV     1   --> A_1  L_1       
     e( 15 - 15) =     21.96197  eV     1   --> A_1  L_1       
     e( 16 - 17) =     21.98360  eV     2   --> E    L_3       
     e( 18 - 19) =     25.09966  eV     2   --> E    L_3       
     e( 20 - 20) =     28.28064  eV     1   --> A_1  L_1       

 **************************************************************************

 **************************************************************************

                    xk=(   0.35002,   0.35002,   0.35002  )

     Band symmetry, C_3v (3m)   point group:

     e(  1 -  1) =    -51.36258  eV     1   --> A_1  L_1       
     e(  2 -  2) =    -23.29655  eV     1   --> A_1  L_1       
     e(  3 -  4) =    -23.28164  eV     2   --> E    L_3       
     e(  5 -  5) =      2.49824  eV     1   --> A_1  L_1       
     e(  6 -  7) =      5.33771  eV     2   --> E    L_3       
     e(  8 -  8) =      6.81386  eV     1   --> A_1  L_1       
     e(  9 - 10) =     17.92070  eV     2   --> E    L_3       
     e( 11 - 12) =     18.35579  eV     2   --> E    L_3       
     e( 13 - 13) =     19.24038  eV     1   --> A_2  L_2       
     e( 14 - 14) =     20.82792  eV     1   --> A_1  L_1       
     e( 15 - 15) =     22.00121  eV     1   --> A_1  L_1       
     e( 16 - 17) =     22.00236  eV     2   --> E    L_3       
     e( 18 - 19) =     25.19226  eV     2   --> E    L_3       
     e( 20 - 20) =     28.32780  eV     1   --> A_1  L_1       

 **************************************************************************

 **************************************************************************

                    xk=(   0.34821,   0.34821,   0.34821  )

     Band symmetry, C_3v (3m)   point group:

     e(  1 -  1) =    -51.36259  eV     1   --> A_1  L_1       
     e(  2 -  2) =    -23.29668  eV     1   --> A_1  L_1       
     e(  3 -  4) =    -23.28152  eV     2   --> E    L_3       
     e(  5 -  5) =      2.45773  eV     1   --> A_1  L_1       
     e(  6 -  7) =      5.36392  eV     2   --> E    L_3       
     e(  8 -  8) =      6.84000  eV     1   --> A_1  L_1       
     e(  9 - 10) =     17.88476  eV     2   --> E    L_3       
     e( 11 - 12) =     18.32350  eV     2   --> E    L_3       
     e( 13 - 13) =     19.19721  eV     1   --> A_2  L_2       
     e( 14 - 14) =     20.79779  eV     1   --> A_1  L_1       
     e( 15 - 16) =     22.02144  eV     2   --> E    L_3       
     e( 17 - 17) =     22.04047  eV     1   --> A_1  L_1       
     e( 18 - 19) =     25.28512  eV     2   --> E    L_3       
     e( 20 - 20) =     28.37565  eV     1   --> A_1  L_1       

 **************************************************************************

 **************************************************************************

                    xk=(   0.34641,   0.34641,   0.34641  )

     Band symmetry, C_3v (3m)   point group:

     e(  1 -  1) =    -51.36259  eV     1   --> A_1  L_1       
     e(  2 -  2) =    -23.29681  eV     1   --> A_1  L_1       
     e(  3 -  4) =    -23.28139  eV     2   --> E    L_3       
     e(  5 -  5) =      2.41736  eV     1   --> A_1  L_1       
     e(  6 -  7) =      5.39033  eV     2   --> E    L_3       
     e(  8 -  8) =      6.86640  eV     1   --> A_1  L_1       
     e(  9 - 10) =     17.84870  eV     2   --> E    L_3       
     e( 11 - 12) =     18.29147  eV     2   --> E    L_3       
     e( 13 - 13) =     19.15427  eV     1   --> A_2  L_2       
     e( 14 - 14) =     20.76729  eV     1   --> A_1  L_1       
     e( 15 - 16) =     22.04085  eV     2   --> E    L_3       
     e( 17 - 17) =     22.07973  eV     1   --> A_1  L_1       
     e( 18 - 19) =     25.37824  eV     2   --> E    L_3       
     e( 20 - 20) =     28.42420  eV     1   --> A_1  L_1       

 **************************************************************************

 **************************************************************************

                    xk=(   0.34461,   0.34461,   0.34461  )

     Band symmetry, C_3v (3m)   point group:

     e(  1 -  1) =    -51.36259  eV     1   --> A_1  L_1       
     e(  2 -  2) =    -23.29693  eV     1   --> A_1  L_1       
     e(  3 -  4) =    -23.28127  eV     2   --> E    L_3       
     e(  5 -  5) =      2.37712  eV     1   --> A_1  L_1       
     e(  6 -  7) =      5.41696  eV     2   --> E    L_3       
     e(  8 -  8) =      6.89304  eV     1   --> A_1  L_1       
     e(  9 - 10) =     17.81257  eV     2   --> E    L_3       
     e( 11 - 12) =     18.25968  eV     2   --> E    L_3       
     e( 13 - 13) =     19.11154  eV     1   --> A_2  L_2       
     e( 14 - 14) =     20.73644  eV     1   --> A_1  L_1       
     e( 15 - 16) =     22.06058  eV     2   --> E    L_3       
     e( 17 - 17) =     22.11897  eV     1   --> A_1  L_1       
     e( 18 - 19) =     25.47159  eV     2   --> E    L_3       
     e( 20 - 20) =     28.47340  eV     1   --> A_1  L_1       

 **************************************************************************

 **************************************************************************

                    xk=(   0.34280,   0.34280,   0.34280  )

     Band symmetry, C_3v (3m)   point group:

     e(  1 -  1) =    -51.36260  eV     1   --> A_1  L_1       
     e(  2 -  2) =    -23.29705  eV     1   --> A_1  L_1       
     e(  3 -  4) =    -23.28115  eV     2   --> E    L_3       
     e(  5 -  5) =      2.33703  eV     1   --> A_1  L_1       
     e(  6 -  7) =      5.44379  eV     2   --> E    L_3       
     e(  8 -  8) =      6.91993  eV     1   --> A_1  L_1       
     e(  9 - 10) =     17.77636  eV     2   --> E    L_3       
     e( 11 - 12) =     18.22815  eV     2   --> E    L_3       
     e( 13 - 13) =     19.06904  eV     1   --> A_2  L_2       
     e( 14 - 14) =     20.70527  eV     1   --> A_1  L_1       
     e( 15 - 16) =     22.08062  eV     2   --> E    L_3       
     e( 17 - 17) =     22.15818  eV     1   --> A_1  L_1       
     e( 18 - 19) =     25.56517  eV     2   --> E    L_3       
     e( 20 - 20) =     28.52326  eV     1   --> A_1  L_1       

 **************************************************************************

 **************************************************************************

                    xk=(   0.34100,   0.34100,   0.34100  )

     Band symmetry, C_3v (3m)   point group:

     e(  1 -  1) =    -51.36260  eV     1   --> A_1  L_1       
     e(  2 -  2) =    -23.29715  eV     1   --> A_1  L_1       
     e(  3 -  4) =    -23.28103  eV     2   --> E    L_3       
     e(  5 -  5) =      2.29708  eV     1   --> A_1  L_1       
     e(  6 -  7) =      5.47084  eV     2   --> E    L_3       
     e(  8 -  8) =      6.94706  eV     1   --> A_1  L_1       
     e(  9 - 10) =     17.74009  eV     2   --> E    L_3       
     e( 11 - 12) =     18.19685  eV     2   --> E    L_3       
     e( 13 - 13) =     19.02677  eV     1   --> A_2  L_2       
     e( 14 - 14) =     20.67379  eV     1   --> A_1  L_1       
     e( 15 - 16) =     22.10097  eV     2   --> E    L_3       
     e( 17 - 17) =     22.19736  eV     1   --> A_1  L_1       
     e( 18 - 19) =     25.65898  eV     2   --> E    L_3       
     e( 20 - 20) =     28.57376  eV     1   --> A_1  L_1       

 **************************************************************************

 **************************************************************************

                    xk=(   0.33919,   0.33919,   0.33919  )

     Band symmetry, C_3v (3m)   point group:

     e(  1 -  1) =    -51.36261  eV     1   --> A_1  L_1       
     e(  2 -  2) =    -23.29726  eV     1   --> A_1  L_1       
     e(  3 -  4) =    -23.28090  eV     2   --> E    L_3       
     e(  5 -  5) =      2.25728  eV     1   --> A_1  L_1       
     e(  6 -  7) =      5.49810  eV     2   --> E    L_3       
     e(  8 -  8) =      6.97443  eV     1   --> A_1  L_1       
     e(  9 - 10) =     17.70379  eV     2   --> E    L_3       
     e( 11 - 12) =     18.16579  eV     2   --> E    L_3       
     e( 13 - 13) =     18.98471  eV     1   --> A_2  L_2       
     e( 14 - 14) =     20.64204  eV     1   --> A_1  L_1       
     e( 15 - 16) =     22.12162  eV     2   --> E    L_3       
     e( 17 - 17) =     22.23649  eV     1   --> A_1  L_1       
     e( 18 - 19) =     25.75297  eV     2   --> E    L_3       
     e( 20 - 20) =     28.62485  eV     1   --> A_1  L_1       

 **************************************************************************

 **************************************************************************

                    xk=(   0.33739,   0.33739,   0.33739  )

     Band symmetry, C_3v (3m)   point group:

     e(  1 -  1) =    -51.36261  eV     1   --> A_1  L_1       
     e(  2 -  2) =    -23.29736  eV     1   --> A_1  L_1       
     e(  3 -  4) =    -23.28078  eV     2   --> E    L_3       
     e(  5 -  5) =      2.21763  eV     1   --> A_1  L_1       
     e(  6 -  7) =      5.52556  eV     2   --> E    L_3       
     e(  8 -  8) =      7.00204  eV     1   --> A_1  L_1       
     e(  9 - 10) =     17.66746  eV     2   --> E    L_3       
     e( 11 - 12) =     18.13495  eV     2   --> E    L_3       
     e( 13 - 13) =     18.94288  eV     1   --> A_2  L_2       
     e( 14 - 14) =     20.61002  eV     1   --> A_1  L_1       
     e( 15 - 16) =     22.14257  eV     2   --> E    L_3       
     e( 17 - 17) =     22.27556  eV     1   --> A_1  L_1       
     e( 18 - 19) =     25.84714  eV     2   --> E    L_3       
     e( 20 - 20) =     28.67653  eV     1   --> A_1  L_1       

 **************************************************************************

 **************************************************************************

                    xk=(   0.33558,   0.33558,   0.33558  )

     Band symmetry, C_3v (3m)   point group:

     e(  1 -  1) =    -51.36262  eV     1   --> A_1  L_1       
     e(  2 -  2) =    -23.29746  eV     1   --> A_1  L_1       
     e(  3 -  4) =    -23.28066  eV     2   --> E    L_3       
     e(  5 -  5) =      2.17813  eV     1   --> A_1  L_1       
     e(  6 -  7) =      5.55324  eV     2   --> E    L_3       
     e(  8 -  8) =      7.02988  eV     1   --> A_1  L_1       
     e(  9 - 10) =     17.63111  eV     2   --> E    L_3       
     e( 11 - 12) =     18.10434  eV     2   --> E    L_3       
     e( 13 - 13) =     18.90127  eV     1   --> A_2  L_2       
     e( 14 - 14) =     20.57775  eV     1   --> A_1  L_1       
     e( 15 - 16) =     22.16380  eV     2   --> E    L_3       
     e( 17 - 17) =     22.31458  eV     1   --> A_1  L_1       
     e( 18 - 19) =     25.94148  eV     2   --> E    L_3       
     e( 20 - 20) =     28.72878  eV     1   --> A_1  L_1       

 **************************************************************************

 **************************************************************************

                    xk=(   0.33378,   0.33378,   0.33378  )

     Band symmetry, C_3v (3m)   point group:

     e(  1 -  1) =    -51.36263  eV     1   --> A_1  L_1       
     e(  2 -  2) =    -23.29756  eV     1   --> A_1  L_1       
     e(  3 -  4) =    -23.28054  eV     2   --> E    L_3       
     e(  5 -  5) =      2.13878  eV     1   --> A_1  L_1       
     e(  6 -  7) =      5.58113  eV     2   --> E    L_3       
     e(  8 -  8) =      7.05795  eV     1   --> A_1  L_1       
     e(  9 - 10) =     17.59477  eV     2   --> E    L_3       
     e( 11 - 12) =     18.07395  eV     2   --> E    L_3       
     e( 13 - 13) =     18.85989  eV     1   --> A_2  L_2       
     e( 14 - 14) =     20.54525  eV     1   --> A_1  L_1       
     e( 15 - 16) =     22.18532  eV     2   --> E    L_3       
     e( 17 - 17) =     22.35352  eV     1   --> A_1  L_1       
     e( 18 - 19) =     26.03596  eV     2   --> E    L_3       
     e( 20 - 20) =     28.78158  eV     1   --> A_1  L_1       

 **************************************************************************

 **************************************************************************

                    xk=(   0.33198,   0.33198,   0.33198  )

     Band symmetry, C_3v (3m)   point group:

     e(  1 -  1) =    -51.36263  eV     1   --> A_1  L_1       
     e(  2 -  2) =    -23.29765  eV     1   --> A_1  L_1       
     e(  3 -  4) =    -23.28042  eV     2   --> E    L_3       
     e(  5 -  5) =      2.09959  eV     1   --> A_1  L_1       
     e(  6 -  7) =      5.60923  eV     2   --> E    L_3       
     e(  8 -  8) =      7.08625  eV     1   --> A_1  L_1       
     e(  9 - 10) =     17.55844  eV     2   --> E    L_3       
     e( 11 - 12) =     18.04377  eV     2   --> E    L_3       
     e( 13 - 13) =     18.81872  eV     1   --> A_2  L_2       
     e( 14 - 14) =     20.51254  eV     1   --> A_1  L_1       
     e( 15 - 16) =     22.20712  eV     2   --> E    L_3       
     e( 17 - 17) =     22.39240  eV     1   --> A_1  L_1       
     e( 18 - 19) =     26.13057  eV     2   --> E    L_3       
     e( 20 - 20) =     28.83490  eV     1   --> A_1  L_1       

 **************************************************************************

 **************************************************************************

                    xk=(   0.33017,   0.33017,   0.33017  )

     Band symmetry, C_3v (3m)   point group:

     e(  1 -  1) =    -51.36264  eV     1   --> A_1  L_1       
     e(  2 -  2) =    -23.29774  eV     1   --> A_1  L_1       
     e(  3 -  4) =    -23.28030  eV     2   --> E    L_3       
     e(  5 -  5) =      2.06056  eV     1   --> A_1  L_1       
     e(  6 -  7) =      5.63754  eV     2   --> E    L_3       
     e(  8 -  8) =      7.11478  eV     1   --> A_1  L_1       
     e(  9 - 10) =     17.52213  eV     2   --> E    L_3       
     e( 11 - 12) =     18.01380  eV     2   --> E    L_3       
     e( 13 - 13) =     18.77779  eV     1   --> A_2  L_2       
     e( 14 - 14) =     20.47961  eV     1   --> A_1  L_1       
     e( 15 - 16) =     22.22920  eV     2   --> E    L_3       
     e( 17 - 17) =     22.43119  eV     1   --> A_1  L_1       
     e( 18 - 19) =     26.22527  eV     2   --> E    L_3       
     e( 20 - 20) =     28.88872  eV     1   --> A_1  L_1       

 **************************************************************************

 **************************************************************************

                    xk=(   0.32837,   0.32837,   0.32837  )

     Band symmetry, C_3v (3m)   point group:

     e(  1 -  1) =    -51.36264  eV     1   --> A_1  L_1       
     e(  2 -  2) =    -23.29782  eV     1   --> A_1  L_1       
     e(  3 -  4) =    -23.28018  eV     2   --> E    L_3       
     e(  5 -  5) =      2.02168  eV     1   --> A_1  L_1       
     e(  6 -  7) =      5.66606  eV     2   --> E    L_3       
     e(  8 -  8) =      7.14352  eV     1   --> A_1  L_1       
     e(  9 - 10) =     17.48585  eV     2   --> E    L_3       
     e( 11 - 12) =     17.98404  eV     2   --> E    L_3       
     e( 13 - 13) =     18.73707  eV     1   --> A_2  L_2       
     e( 14 - 14) =     20.44650  eV     1   --> A_1  L_1       
     e( 15 - 16) =     22.25154  eV     2   --> E    L_3       
     e( 17 - 17) =     22.46991  eV     1   --> A_1  L_1       
     e( 18 - 19) =     26.32004  eV     2   --> E    L_3       
     e( 20 - 20) =     28.94301  eV     1   --> A_1  L_1       

 **************************************************************************

 **************************************************************************

                    xk=(   0.32656,   0.32656,   0.32656  )

     Band symmetry, C_3v (3m)   point group:

     e(  1 -  1) =    -51.36265  eV     1   --> A_1  L_1       
     e(  2 -  2) =    -23.29790  eV     1   --> A_1  L_1       
     e(  3 -  4) =    -23.28007  eV     2   --> E    L_3       
     e(  5 -  5) =      1.98297  eV     1   --> A_1  L_1       
     e(  6 -  7) =      5.69479  eV     2   --> E    L_3       
     e(  8 -  8) =      7.17249  eV     1   --> A_1  L_1       
     e(  9 - 10) =     17.44962  eV     2   --> E    L_3       
     e( 11 - 12) =     17.95448  eV     2   --> E    L_3       
     e( 13 - 13) =     18.69658  eV     1   --> A_2  L_2       
     e( 14 - 14) =     20.41320  eV     1   --> A_1  L_1       
     e( 15 - 16) =     22.27415  eV     2   --> E    L_3       
     e( 17 - 17) =     22.50854  eV     1   --> A_1  L_1       
     e( 18 - 19) =     26.41485  eV     2   --> E    L_3       
     e( 20 - 20) =     28.99775  eV     1   --> A_1  L_1       

 **************************************************************************

 **************************************************************************

                    xk=(   0.32476,   0.32476,   0.32476  )

     Band symmetry, C_3v (3m)   point group:

     e(  1 -  1) =    -51.36265  eV     1   --> A_1  L_1       
     e(  2 -  2) =    -23.29796  eV     1   --> A_1  L_1       
     e(  3 -  4) =    -23.27993  eV     2   --> E    L_3       
     e(  5 -  5) =      1.94443  eV     1   --> A_1  L_1       
     e(  6 -  7) =      5.72373  eV     2   --> E    L_3       
     e(  8 -  8) =      7.20168  eV     1   --> A_1  L_1       
     e(  9 - 10) =     17.41344  eV     2   --> E    L_3       
     e( 11 - 12) =     17.92513  eV     2   --> E    L_3       
     e( 13 - 13) =     18.65631  eV     1   --> A_2  L_2       
     e( 14 - 14) =     20.37974  eV     1   --> A_1  L_1       
     e( 15 - 16) =     22.29703  eV     2   --> E    L_3       
     e( 17 - 17) =     22.54710  eV     1   --> A_1  L_1       
     e( 18 - 19) =     26.50966  eV     2   --> E    L_3       
     e( 20 - 20) =     29.05291  eV     1   --> A_1  L_1       

 **************************************************************************

 **************************************************************************

                    xk=(   0.32296,   0.32296,   0.32296  )

     Band symmetry, C_3v (3m)   point group:

     e(  1 -  1) =    -51.36266  eV     1   --> A_1  L_1       
     e(  2 -  2) =    -23.29806  eV     1   --> A_1  L_1       
     e(  3 -  4) =    -23.27982  eV     2   --> E    L_3       
     e(  5 -  5) =      1.90605  eV     1   --> A_1  L_1       
     e(  6 -  7) =      5.75288  eV     2   --> E    L_3       
     e(  8 -  8) =      7.23107  eV     1   --> A_1  L_1       
     e(  9 - 10) =     17.37732  eV     2   --> E    L_3       
     e( 11 - 12) =     17.89596  eV     2   --> E    L_3       
     e( 13 - 13) =     18.61626  eV     1   --> A_2  L_2       
     e( 14 - 14) =     20.34610  eV     1   --> A_1  L_1       
     e( 15 - 16) =     22.32016  eV     2   --> E    L_3       
     e( 17 - 17) =     22.58554  eV     1   --> A_1  L_1       
     e( 18 - 19) =     26.60442  eV     2   --> E    L_3       
     e( 20 - 20) =     29.10845  eV     1   --> A_1  L_1       

 **************************************************************************

 **************************************************************************

                    xk=(   0.32115,   0.32115,   0.32115  )

     Band symmetry, C_3v (3m)   point group:

     e(  1 -  1) =    -51.36267  eV     1   --> A_1  L_1       
     e(  2 -  2) =    -23.29812  eV     1   --> A_1  L_1       
     e(  3 -  4) =    -23.27970  eV     2   --> E    L_3       
     e(  5 -  5) =      1.86783  eV     1   --> A_1  L_1       
     e(  6 -  7) =      5.78225  eV     2   --> E    L_3       
     e(  8 -  8) =      7.26068  eV     1   --> A_1  L_1       
     e(  9 - 10) =     17.34128  eV     2   --> E    L_3       
     e( 11 - 12) =     17.86699  eV     2   --> E    L_3       
     e( 13 - 13) =     18.57644  eV     1   --> A_2  L_2       
     e( 14 - 14) =     20.31233  eV     1   --> A_1  L_1       
     e( 15 - 16) =     22.34353  eV     2   --> E    L_3       
     e( 17 - 17) =     22.62388  eV     1   --> A_1  L_1       
     e( 18 - 19) =     26.69907  eV     2   --> E    L_3       
     e( 20 - 20) =     29.16434  eV     1   --> A_1  L_1       

 **************************************************************************

 **************************************************************************

                    xk=(   0.31935,   0.31935,   0.31935  )

     Band symmetry, C_3v (3m)   point group:

     e(  1 -  1) =    -51.36268  eV     1   --> A_1  L_1       
     e(  2 -  2) =    -23.29818  eV     1   --> A_1  L_1       
     e(  3 -  4) =    -23.27958  eV     2   --> E    L_3       
     e(  5 -  5) =      1.82979  eV     1   --> A_1  L_1       
     e(  6 -  7) =      5.81182  eV     2   --> E    L_3       
     e(  8 -  8) =      7.29051  eV     1   --> A_1  L_1       
     e(  9 - 10) =     17.30531  eV     2   --> E    L_3       
     e( 11 - 12) =     17.83822  eV     2   --> E    L_3       
     e( 13 - 13) =     18.53684  eV     1   --> A_2  L_2       
     e( 14 - 14) =     20.27843  eV     1   --> A_1  L_1       
     e( 15 - 16) =     22.36716  eV     2   --> E    L_3       
     e( 17 - 17) =     22.66212  eV     1   --> A_1  L_1       
     e( 18 - 19) =     26.79356  eV     2   --> E    L_3       
     e( 20 - 20) =     29.22053  eV     1   --> A_1  L_1       

 **************************************************************************

 **************************************************************************

                    xk=(   0.31754,   0.31754,   0.31754  )

     Band symmetry, C_3v (3m)   point group:

     e(  1 -  1) =    -51.36268  eV     1   --> A_1  L_1       
     e(  2 -  2) =    -23.29823  eV     1   --> A_1  L_1       
     e(  3 -  4) =    -23.27947  eV     2   --> E    L_3       
     e(  5 -  5) =      1.79191  eV     1   --> A_1  L_1       
     e(  6 -  7) =      5.84161  eV     2   --> E    L_3       
     e(  8 -  8) =      7.32054  eV     1   --> A_1  L_1       
     e(  9 - 10) =     17.26943  eV     2   --> E    L_3       
     e( 11 - 12) =     17.80963  eV     2   --> E    L_3       
     e( 13 - 13) =     18.49746  eV     1   --> A_2  L_2       
     e( 14 - 14) =     20.24439  eV     1   --> A_1  L_1       
     e( 15 - 16) =     22.39102  eV     2   --> E    L_3       
     e( 17 - 17) =     22.70025  eV     1   --> A_1  L_1       
     e( 18 - 19) =     26.88780  eV     2   --> E    L_3       
     e( 20 - 20) =     29.27699  eV     1   --> A_1  L_1       

 **************************************************************************

 **************************************************************************

                    xk=(   0.31574,   0.31574,   0.31574  )

     Band symmetry, C_3v (3m)   point group:

     e(  1 -  1) =    -51.36269  eV     1   --> A_1  L_1       
     e(  2 -  2) =    -23.29828  eV     1   --> A_1  L_1       
     e(  3 -  4) =    -23.27935  eV     2   --> E    L_3       
     e(  5 -  5) =      1.75421  eV     1   --> A_1  L_1       
     e(  6 -  7) =      5.87160  eV     2   --> E    L_3       
     e(  8 -  8) =      7.35078  eV     1   --> A_1  L_1       
     e(  9 - 10) =     17.23365  eV     2   --> E    L_3       
     e( 11 - 12) =     17.78122  eV     2   --> E    L_3       
     e( 13 - 13) =     18.45830  eV     1   --> A_2  L_2       
     e( 14 - 14) =     20.21023  eV     1   --> A_1  L_1       
     e( 15 - 16) =     22.41513  eV     2   --> E    L_3       
     e( 17 - 17) =     22.73827  eV     1   --> A_1  L_1       
     e( 18 - 19) =     26.98170  eV     2   --> E    L_3       
     e( 20 - 20) =     29.33366  eV     1   --> A_1  L_1       

 **************************************************************************

 **************************************************************************

                    xk=(   0.31393,   0.31393,   0.31393  )

     Band symmetry, C_3v (3m)   point group:

     e(  1 -  1) =    -51.36270  eV     1   --> A_1  L_1       
     e(  2 -  2) =    -23.29833  eV     1   --> A_1  L_1       
[...]
     e( 17 - 17) =     21.72517  eV     1   --> A_1  G_1 D_1   
     e( 18 - 18) =     28.42585  eV     1   --> A_1  G_1 D_1   
     e( 19 - 19) =     29.00178  eV     1   --> B_1  G_3 D_2   
     e( 20 - 20) =     32.28834  eV     1   -->   ?

 **************************************************************************

 **************************************************************************

                    xk=(   0.04691,   0.00000,   0.00000  )

     Band symmetry, C_4v (4mm)  point group:

     e(  1 -  1) =    -51.36466  eV     1   --> A_1  G_1 D_1   
     e(  2 -  2) =    -23.26992  eV     1   --> A_1  G_1 D_1   
     e(  3 -  4) =    -23.26973  eV     2   --> E    G_5 D_5   
     e(  5 -  5) =     -1.63766  eV     1   --> A_1  G_1 D_1   
     e(  6 -  7) =     13.10096  eV     2   --> E    G_5 D_5   
     e(  8 -  8) =     13.45068  eV     1   --> B_2  G_4 D_2'  
     e(  9 -  9) =     13.78386  eV     1   --> B_1  G_3 D_2   
     e( 10 - 10) =     14.27842  eV     1   --> A_1  G_1 D_1   
     e( 11 - 12) =     15.20637  eV     2   --> E    G_5 D_5   
     e( 13 - 13) =     15.51699  eV     1   --> A_1  G_1 D_1   
     e( 14 - 15) =     15.64522  eV     2   --> E    G_5 D_5   
     e( 16 - 16) =     15.73498  eV     1   --> B_1  G_3 D_2   
     e( 17 - 17) =     21.71058  eV     1   --> A_1  G_1 D_1   
     e( 18 - 18) =     28.49431  eV     1   --> A_1  G_1 D_1   
     e( 19 - 19) =     28.99795  eV     1   --> B_1  G_3 D_2   
     e( 20 - 20) =     32.28605  eV     1   -->   ?

 **************************************************************************

 **************************************************************************

                    xk=(   0.04330,   0.00000,   0.00000  )

     Band symmetry, C_4v (4mm)  point group:

     e(  1 -  1) =    -51.36466  eV     1   --> A_1  G_1 D_1   
     e(  2 -  2) =    -23.26987  eV     1   --> A_1  G_1 D_1   
     e(  3 -  4) =    -23.26970  eV     2   --> E    G_5 D_5   
     e(  5 -  5) =     -1.64151  eV     1   --> A_1  G_1 D_1   
     e(  6 -  7) =     13.14241  eV     2   --> E    G_5 D_5   
     e(  8 -  8) =     13.44698  eV     1   --> B_2  G_4 D_2'  
     e(  9 -  9) =     13.84751  eV     1   --> B_1  G_3 D_2   
     e( 10 - 10) =     14.29886  eV     1   --> A_1  G_1 D_1   
     e( 11 - 12) =     15.19300  eV     2   --> E    G_5 D_5   
     e( 13 - 13) =     15.50349  eV     1   --> A_1  G_1 D_1   
     e( 14 - 15) =     15.60683  eV     2   --> E    G_5 D_5   
     e( 16 - 16) =     15.66398  eV     1   --> B_1  G_3 D_2   
     e( 17 - 17) =     21.69703  eV     1   --> A_1  G_1 D_1   
     e( 18 - 18) =     28.55941  eV     1   --> A_1  G_1 D_1   
     e( 19 - 19) =     28.99440  eV     1   --> B_1  G_3 D_2   
     e( 20 - 20) =     32.28393  eV     1   -->   ?

 **************************************************************************

 **************************************************************************

                    xk=(   0.03969,   0.00000,   0.00000  )

     Band symmetry, C_4v (4mm)  point group:

     e(  1 -  1) =    -51.36467  eV     1   --> A_1  G_1 D_1   
     e(  2 -  2) =    -23.26981  eV     1   --> A_1  G_1 D_1   
     e(  3 -  4) =    -23.26967  eV     2   --> E    G_5 D_5   
     e(  5 -  5) =     -1.64505  eV     1   --> A_1  G_1 D_1   
     e(  6 -  7) =     13.18214  eV     2   --> E    G_5 D_5   
     e(  8 -  8) =     13.44357  eV     1   --> B_2  G_4 D_2'  
     e(  9 -  9) =     13.91083  eV     1   --> B_1  G_3 D_2   
     e( 10 - 10) =     14.31809  eV     1   --> A_1  G_1 D_1   
     e( 11 - 12) =     15.17854  eV     2   --> E    G_5 D_5   
     e( 13 - 13) =     15.49067  eV     1   --> A_1  G_1 D_1   
     e( 14 - 15) =     15.57210  eV     2   --> E    G_5 D_5   
     e( 16 - 16) =     15.59392  eV     1   --> B_1  G_3 D_2   
     e( 17 - 17) =     21.68453  eV     1   --> A_1  G_1 D_1   
     e( 18 - 18) =     28.62084  eV     1   --> A_1  G_1 D_1   
     e( 19 - 19) =     28.99115  eV     1   --> B_1  G_3 D_2   
     e( 20 - 20) =     32.28198  eV     1   -->   ?

 **************************************************************************

 **************************************************************************

                    xk=(   0.03608,   0.00000,   0.00000  )

     Band symmetry, C_4v (4mm)  point group:

     e(  1 -  1) =    -51.36467  eV     1   --> A_1  G_1 D_1   
     e(  2 -  2) =    -23.26977  eV     1   --> A_1  G_1 D_1   
     e(  3 -  4) =    -23.26965  eV     2   --> E    G_5 D_5   
     e(  5 -  5) =     -1.64828  eV     1   --> A_1  G_1 D_1   
     e(  6 -  7) =     13.21989  eV     2   --> E    G_5 D_5   
     e(  8 -  8) =     13.44046  eV     1   --> B_2  G_4 D_2'  
     e(  9 -  9) =     13.97362  eV     1   --> B_1  G_3 D_2   
     e( 10 - 10) =     14.33603  eV     1   --> A_1  G_1 D_1   
     e( 11 - 12) =     15.16303  eV     2   --> E    G_5 D_5   
     e( 13 - 13) =     15.47862  eV     1   --> A_1  G_1 D_1   
     e( 14 - 14) =     15.52496  eV     1   --> B_1  G_3 D_2   
     e( 15 - 16) =     15.54119  eV     2   --> E    G_5 D_5   
     e( 17 - 17) =     21.67307  eV     1   --> A_1  G_1 D_1   
     e( 18 - 18) =     28.67834  eV     1   --> A_1  G_1 D_1   
     e( 19 - 19) =     28.98817  eV     1   --> B_1  G_3 D_2   
     e( 20 - 20) =     32.28020  eV     1   -->   ?

 **************************************************************************

 **************************************************************************

                    xk=(   0.03248,   0.00000,   0.00000  )

     Band symmetry, C_4v (4mm)  point group:

     e(  1 -  1) =    -51.36467  eV     1   --> A_1  G_1 D_1   
     e(  2 -  4) =    -23.26973  eV     3   --> A_1  G_1 D_1   
     e(  2 -  4) =    -23.26973  eV     3   --> E    G_5 D_5   
     e(  5 -  5) =     -1.65120  eV     1   --> A_1  G_1 D_1   
     e(  6 -  7) =     13.25542  eV     2   --> E    G_5 D_5   
     e(  8 -  8) =     13.43764  eV     1   --> B_2  G_4 D_2'  
     e(  9 -  9) =     14.03568  eV     1   --> B_1  G_3 D_2   
     e( 10 - 10) =     14.35260  eV     1   --> A_1  G_1 D_1   
     e( 11 - 12) =     15.14668  eV     2   --> E    G_5 D_5   
     e( 13 - 13) =     15.45732  eV     1   --> B_1  G_3 D_2   
     e( 14 - 14) =     15.46739  eV     1   --> A_1  G_1 D_1   
     e( 15 - 16) =     15.51419  eV     2   --> E    G_5 D_5   
     e( 17 - 17) =     21.66269  eV     1   --> A_1  G_1 D_1   
     e( 18 - 18) =     28.73160  eV     1   --> A_1  G_1 D_1   
     e( 19 - 19) =     28.98548  eV     1   --> B_1  G_3 D_2   
     e( 20 - 20) =     32.27859  eV     1   -->   ?

 **************************************************************************

 **************************************************************************

                    xk=(   0.02887,   0.00000,   0.00000  )

     Band symmetry, C_4v (4mm)  point group:

     e(  1 -  1) =    -51.36467  eV     1   --> A_1  G_1 D_1   
     e(  2 -  4) =    -23.26968  eV     3   --> A_1  G_1 D_1   
     e(  2 -  4) =    -23.26968  eV     3   --> E    G_5 D_5   
     e(  5 -  5) =     -1.65382  eV     1   --> A_1  G_1 D_1   
     e(  6 -  7) =     13.28843  eV     2   --> E    G_5 D_5   
     e(  8 -  8) =     13.43512  eV     1   --> B_2  G_4 D_2'  
     e(  9 -  9) =     14.09668  eV     1   --> B_1  G_3 D_2   
     e( 10 - 10) =     14.36772  eV     1   --> A_1  G_1 D_1   
     e( 11 - 12) =     15.12982  eV     2   --> E    G_5 D_5   
     e( 13 - 13) =     15.39132  eV     1   --> B_1  G_3 D_2   
     e( 14 - 14) =     15.45708  eV     1   --> A_1  G_1 D_1   
     e( 15 - 16) =     15.49103  eV     2   --> E    G_5 D_5   
     e( 17 - 17) =     21.65337  eV     1   --> A_1  G_1 D_1   
     e( 18 - 18) =     28.78033  eV     1   --> A_1  G_1 D_1   
     e( 19 - 19) =     28.98307  eV     1   --> B_1  G_3 D_2   
     e( 20 - 20) =     32.27715  eV     1   -->   ?

 **************************************************************************

 **************************************************************************

                    xk=(   0.02526,   0.00000,   0.00000  )

     Band symmetry, C_4v (4mm)  point group:

     e(  1 -  1) =    -51.36468  eV     1   --> A_1  G_1 D_1   
     e(  2 -  4) =    -23.26965  eV     3   --> A_1  G_1 D_1   
     e(  2 -  4) =    -23.26965  eV     3   --> E    G_5 D_5   
     e(  5 -  5) =     -1.65613  eV     1   --> A_1  G_1 D_1   
     e(  6 -  7) =     13.31862  eV     2   --> E    G_5 D_5   
     e(  8 -  8) =     13.43290  eV     1   --> B_2  G_4 D_2'  
     e(  9 -  9) =     14.15620  eV     1   --> B_1  G_3 D_2   
     e( 10 - 10) =     14.38131  eV     1   --> A_1  G_1 D_1   
     e( 11 - 12) =     15.11292  eV     2   --> E    G_5 D_5   
     e( 13 - 13) =     15.32739  eV     1   --> B_1  G_3 D_2   
     e( 14 - 14) =     15.44774  eV     1   --> A_1  G_1 D_1   
     e( 15 - 16) =     15.47154  eV     2   --> E    G_5 D_5   
     e( 17 - 17) =     21.64513  eV     1   --> A_1  G_1 D_1   
     e( 18 - 18) =     28.82420  eV     1   --> A_1  G_1 D_1   
     e( 19 - 19) =     28.98094  eV     1   --> B_1  G_3 D_2   
     e( 20 - 20) =     32.27588  eV     1   -->   ?

 **************************************************************************

 **************************************************************************

                    xk=(   0.02165,   0.00000,   0.00000  )

     Band symmetry, C_4v (4mm)  point group:

     e(  1 -  1) =    -51.36468  eV     1   --> A_1  G_1 D_1   
     e(  2 -  4) =    -23.26962  eV     3   --> A_1  G_1 D_1   
     e(  2 -  4) =    -23.26962  eV     3   --> E    G_5 D_5   
     e(  5 -  5) =     -1.65813  eV     1   --> A_1  G_1 D_1   
     e(  6 -  7) =     13.34568  eV     2   --> E    G_5 D_5   
     e(  8 -  8) =     13.43097  eV     1   --> B_2  G_4 D_2'  
     e(  9 -  9) =     14.21361  eV     1   --> B_1  G_3 D_2   
     e( 10 - 10) =     14.39328  eV     1   --> A_1  G_1 D_1   
     e( 11 - 12) =     15.09657  eV     2   --> E    G_5 D_5   
     e( 13 - 13) =     15.26616  eV     1   --> B_1  G_3 D_2   
     e( 14 - 14) =     15.43947  eV     1   --> A_1  G_1 D_1   
     e( 15 - 16) =     15.45549  eV     2   --> E    G_5 D_5   
     e( 17 - 17) =     21.63798  eV     1   --> A_1  G_1 D_1   
     e( 18 - 18) =     28.86294  eV     1   --> A_1  G_1 D_1   
     e( 19 - 19) =     28.97909  eV     1   --> B_1  G_3 D_2   
     e( 20 - 20) =     32.27477  eV     1   -->   ?

 **************************************************************************

 **************************************************************************

                    xk=(   0.01804,   0.00000,   0.00000  )

     Band symmetry, C_4v (4mm)  point group:

     e(  1 -  1) =    -51.36468  eV     1   --> A_1  G_1 D_1   
     e(  2 -  4) =    -23.26960  eV     3   --> A_1  G_1 D_1   
     e(  2 -  4) =    -23.26960  eV     3   --> E    G_5 D_5   
     e(  5 -  5) =     -1.65982  eV     1   --> A_1  G_1 D_1   
     e(  6 -  7) =     13.36928  eV     2   --> E    G_5 D_5   
     e(  8 -  8) =     13.42934  eV     1   --> B_2  G_4 D_2'  
     e(  9 -  9) =     14.26800  eV     1   --> B_1  G_3 D_2   
     e( 10 - 10) =     14.40356  eV     1   --> A_1  G_1 D_1   
     e( 11 - 12) =     15.08137  eV     2   --> E    G_5 D_5   
     e( 13 - 13) =     15.20854  eV     1   --> B_1  G_3 D_2   
     e( 14 - 14) =     15.43232  eV     1   --> A_1  G_1 D_1   
     e( 15 - 16) =     15.44255  eV     2   --> E    G_5 D_5   
     e( 17 - 17) =     21.63191  eV     1   --> A_1  G_1 D_1   
     e( 18 - 18) =     28.89626  eV     1   --> A_1  G_1 D_1   
     e( 19 - 19) =     28.97753  eV     1   --> B_1  G_3 D_2   
     e( 20 - 20) =     32.27384  eV     1   -->   ?

 **************************************************************************

 **************************************************************************

                    xk=(   0.01443,   0.00000,   0.00000  )

     Band symmetry, C_4v (4mm)  point group:

     e(  1 -  1) =    -51.36468  eV     1   --> A_1  G_1 D_1   
     e(  2 -  4) =    -23.26958  eV     3   --> A_1  G_1 D_1   
     e(  2 -  4) =    -23.26958  eV     3   --> E    G_5 D_5   
     e(  5 -  5) =     -1.66121  eV     1   --> A_1  G_1 D_1   
     e(  6 -  7) =     13.38911  eV     2   --> E    G_5 D_5   
     e(  8 -  8) =     13.42801  eV     1   --> B_2  G_4 D_2'  
     e(  9 -  9) =     14.31803  eV     1   --> B_1  G_3 D_2   
     e( 10 - 10) =     14.41209  eV     1   --> A_1  G_1 D_1   
     e( 11 - 12) =     15.06794  eV     2   --> E    G_5 D_5   
     e( 13 - 13) =     15.15587  eV     1   --> B_1  G_3 D_2   
     e( 14 - 14) =     15.42637  eV     1   --> A_1  G_1 D_1   
     e( 15 - 16) =     15.43244  eV     2   --> E    G_5 D_5   
     e( 17 - 17) =     21.62695  eV     1   --> A_1  G_1 D_1   
     e( 18 - 18) =     28.92392  eV     1   --> A_1  G_1 D_1   
     e( 19 - 19) =     28.97626  eV     1   --> B_1  G_3 D_2   
     e( 20 - 20) =     32.27307  eV     1   -->   ?

 **************************************************************************

 **************************************************************************

                    xk=(   0.01083,   0.00000,   0.00000  )

     Band symmetry, C_4v (4mm)  point group:

     e(  1 -  1) =    -51.36468  eV     1   --> A_1  G_1 D_1   
     e(  2 -  4) =    -23.26956  eV     3   --> A_1  G_1 D_1   
     e(  2 -  4) =    -23.26956  eV     3   --> E    G_5 D_5   
     e(  5 -  5) =     -1.66228  eV     1   --> A_1  G_1 D_1   
     e(  6 -  7) =     13.40488  eV     2   --> E    G_5 D_5   
     e(  8 -  8) =     13.42697  eV     1   --> B_2  G_4 D_2'  
     e(  9 -  9) =     14.36179  eV     1   --> B_1  G_3 D_2   
     e( 10 - 10) =     14.41879  eV     1   --> A_1  G_1 D_1   
     e( 11 - 12) =     15.05684  eV     2   --> E    G_5 D_5   
     e( 13 - 13) =     15.11006  eV     1   --> B_1  G_3 D_2   
     e( 14 - 14) =     15.42167  eV     1   --> A_1  G_1 D_1   
     e( 15 - 16) =     15.42487  eV     2   --> E    G_5 D_5   
     e( 17 - 17) =     21.62308  eV     1   --> A_1  G_1 D_1   
     e( 18 - 18) =     28.94568  eV     1   --> A_1  G_1 D_1   
     e( 19 - 19) =     28.97527  eV     1   --> B_1  G_3 D_2   
     e( 20 - 20) =     32.27248  eV     1   -->   ?

 **************************************************************************

 **************************************************************************

                    xk=(   0.00722,   0.00000,   0.00000  )

     Band symmetry, C_4v (4mm)  point group:

     e(  1 -  1) =    -51.36469  eV     1   --> A_1  G_1 D_1   
     e(  2 -  4) =    -23.26955  eV     3   --> A_1  G_1 D_1   
     e(  2 -  4) =    -23.26955  eV     3   --> E    G_5 D_5   
     e(  5 -  5) =     -1.66305  eV     1   --> A_1  G_1 D_1   
     e(  6 -  7) =     13.41634  eV     2   --> E    G_5 D_5   
     e(  8 -  8) =     13.42623  eV     1   --> B_2  G_4 D_2'  
     e(  9 -  9) =     14.39665  eV     1   --> B_1  G_3 D_2   
     e( 10 - 10) =     14.42361  eV     1   --> A_1  G_1 D_1   
     e( 11 - 12) =     15.04856  eV     2   --> E    G_5 D_5   
     e( 13 - 13) =     15.07373  eV     1   --> B_1  G_3 D_2   
     e( 14 - 14) =     15.41828  eV     1   --> A_1  G_1 D_1   
     e( 15 - 16) =     15.41964  eV     2   --> E    G_5 D_5   
     e( 17 - 17) =     21.62031  eV     1   --> A_1  G_1 D_1   
     e( 18 - 18) =     28.96136  eV     1   --> A_1  G_1 D_1   
     e( 19 - 19) =     28.97456  eV     1   --> B_1  G_3 D_2   
     e( 20 - 20) =     32.27205  eV     1   -->   ?

 **************************************************************************

 **************************************************************************

                    xk=(   0.00361,   0.00000,   0.00000  )

     Band symmetry, C_4v (4mm)  point group:

     e(  1 -  1) =    -51.36469  eV     1   --> A_1  G_1 D_1   
     e(  2 -  4) =    -23.26955  eV     3   --> A_1  G_1 D_1   
     e(  2 -  4) =    -23.26955  eV     3   --> E    G_5 D_5   
     e(  5 -  5) =     -1.66351  eV     1   --> A_1  G_1 D_1   
     e(  6 -  7) =     13.42330  eV     2   --> E    G_5 D_5   
     e(  8 -  8) =     13.42579  eV     1   --> B_2  G_4 D_2'  
     e(  9 -  9) =     14.41949  eV     1   --> B_1  G_3 D_2   
     e( 10 - 10) =     14.42652  eV     1   --> A_1  G_1 D_1   
     e( 11 - 12) =     15.04344  eV     2   --> E    G_5 D_5   
     e( 13 - 13) =     15.05000  eV     1   --> B_1  G_3 D_2   
     e( 14 - 14) =     15.41623  eV     1   --> A_1  G_1 D_1   
     e( 15 - 16) =     15.41656  eV     2   --> E    G_5 D_5   
     e( 17 - 17) =     21.61865  eV     1   --> A_1  G_1 D_1   
     e( 18 - 18) =     28.97082  eV     1   --> A_1  G_1 D_1   
     e( 19 - 19) =     28.97413  eV     1   --> B_1  G_3 D_2   
     e( 20 - 20) =     32.27180  eV     1   -->   ?

 **************************************************************************

 **************************************************************************

                    xk=(   0.00000,   0.00000,   0.00000  )

     point group O_h (m-3m) 
     there are 10 classes
     the character table:

       E     8C3   3C2   6C4   6C2'  i     8S6   3s_h  6S4   6s_d 
A_1g   1.00  1.00  1.00  1.00  1.00  1.00  1.00  1.00  1.00  1.00
A_2g   1.00  1.00  1.00 -1.00 -1.00  1.00  1.00  1.00 -1.00 -1.00
E_g    2.00 -1.00  2.00  0.00  0.00  2.00 -1.00  2.00  0.00  0.00
T_1g   3.00  0.00 -1.00  1.00 -1.00  3.00  0.00 -1.00  1.00 -1.00
T_2g   3.00  0.00 -1.00 -1.00  1.00  3.00  0.00 -1.00 -1.00  1.00
A_1u   1.00  1.00  1.00  1.00  1.00 -1.00 -1.00 -1.00 -1.00 -1.00
A_2u   1.00  1.00  1.00 -1.00 -1.00 -1.00 -1.00 -1.00  1.00  1.00
E_u    2.00 -1.00  2.00  0.00  0.00 -2.00  1.00 -2.00  0.00  0.00
T_1u   3.00  0.00 -1.00  1.00 -1.00 -3.00  0.00  1.00 -1.00  1.00
T_2u   3.00  0.00 -1.00 -1.00  1.00 -3.00  0.00  1.00  1.00 -1.00

     the symmetry operations in each class and the name of the first element:

     E        1
                                                                 
     8C3     17   19   20   18   24   21   22   23
                                                                 
     3C2      2    4    3
                                                                 
     6C4      7    8   15   16   12   11
                                                                 
     6C2'     5    6   14   13   10    9
                                                                 
     i       25
                                                                 
     8S6     41   43   44   42   48   45   46   47
                                                                 
     3s_h    26   28   27
                                                                 
     6S4     31   32   39   40   36   35
                                                                 
     6s_d    29   30   38   37   34   33
                                                                 

     Band symmetry, O_h (m-3m)  point group:

     e(  1 -  1) =    -51.36469  eV     1   --> A_1g G_1   G_1+
     e(  2 -  4) =    -23.26954  eV     3   --> T_1u G_15  G_4-
     e(  5 -  5) =     -1.66367  eV     1   --> A_1g G_1   G_1+
     e(  6 -  8) =     13.42564  eV     3   --> T_2g G_25' G_5+
     e(  9 - 10) =     14.42749  eV     2   --> E_g  G_12  G_3+
     e( 11 - 13) =     15.04171  eV     3   --> T_2u G_25  G_5-
     e( 14 - 16) =     15.41554  eV     3   --> T_1u G_15  G_4-
     e( 17 - 17) =     21.61810  eV     1   --> A_1g G_1   G_1+
     e( 18 - 19) =     28.97399  eV     2   --> E_g  G_12  G_3+
     e( 20 - 20) =     32.27171  eV     1   -->   ?

 **************************************************************************
 
     BANDS        :   1m21.58s CPU   1m23.77s WALL

 
   This run was terminated on:  22:29:12  31May2026            

=------------------------------------------------------------------------------=
   JOB DONE.
=------------------------------------------------------------------------------=
