
     Program PWSCF v.7.1 starts on 31May2026 at 22:26:38 

     This program is part of the open-source Quantum ESPRESSO suite
     for quantum simulation of materials; please cite
         "P. Giannozzi et al., J. Phys.:Condens. Matter 21 395502 (2009);
         "P. Giannozzi et al., J. Phys.:Condens. Matter 29 465901 (2017);
         "P. Giannozzi et al., J. Chem. Phys. 152 154105 (2020);
          URL http://www.quantum-espresso.org", 
     in publications or presentations arising from this work. More details at
     http://www.quantum-espresso.org/quote

     Parallel version (MPI & OpenMP), running on       7 processor cores
     Number of MPI processes:                 7
     Threads/MPI process:                     1

     MPI processes distributed on     7 nodes
     223844 MiB available memory on the printing compute node when the environment starts
 
     Waiting for input...
     Reading input from standard input
Warning: card &IONS ignored
Warning: card  ION_DYNAMICS = 'BFGS' ignored
Warning: card  UPSCALE = 1.0 ignored
Warning: card / ignored
Warning: card &CELL ignored
Warning: card / ignored
Warning: card / ignored

     Current dimensions of program PWSCF are:
     Max number of different atomic species (ntypx) = 10
     Max number of k-points (npk) =  40000
     Max angular momentum in pseudopotentials (lmaxx) =  4

     Atomic positions and unit cell read from directory:
     ./data/scf.save/
 
     Message from routine setup:
     using ibrav=0 with symmetry is DISCOURAGED, use correct ibrav instead
 
     R & G space division:  proc/nbgrp/npool/nimage =       7
     Subspace diagonalization in iterative solution of the eigenvalue problem:
     a serial algorithm will be used

 
     Parallelization info
     --------------------
     sticks:   dense  smooth     PW     G-vecs:    dense   smooth      PW
     Min         227      89     28                 5733     1428     249
     Max         228      90     29                 5735     1430     250
     Sum        1595     627    201                40143    10005    1745
 
     Using Slab Decomposition
 


     bravais-lattice index     =            0
     lattice parameter (alat)  =       6.8551  a.u.
     unit-cell volume          =     247.9822 (a.u.)^3
     number of atoms/cell      =            1
     number of atomic types    =            1
     number of electrons       =         9.00
     number of Kohn-Sham states=           20
     kinetic-energy cutoff     =      45.0000  Ry
     charge density cutoff     =     450.0000  Ry
     Exchange-correlation=  SLA  PW   PBX  PBC
                           (   1   4   3   4   0   0   0)

     celldm(1)=   6.855105  celldm(2)=   0.000000  celldm(3)=   0.000000
     celldm(4)=   0.000000  celldm(5)=   0.000000  celldm(6)=   0.000000

     crystal axes: (cart. coord. in units of alat)
               a(1) = (  -0.577350   0.577350   0.577350 )  
               a(2) = (   0.577350  -0.577350   0.577350 )  
               a(3) = (   0.577350   0.577350  -0.577350 )  

     reciprocal axes: (cart. coord. in units 2 pi/alat)
               b(1) = (  0.000000  0.866025  0.866025 )  
               b(2) = (  0.866025  0.000000  0.866025 )  
               b(3) = (  0.866025  0.866025  0.000000 )  


     PseudoPot. # 1 for Na read from file:
     /home/k0750/k075000/PSPOT/na_pbe_v1.5.uspp.F.UPF
     MD5 check sum: 44600605ef58000f06b90626533354dc
     Pseudo is Ultrasoft, Zval =  9.0
     Generated by new atomic code, or converted to UPF format
     Using radial grid of  819 points,  5 beta functions with: 
                l(1) =   0
                l(2) =   0
                l(3) =   1
                l(4) =   1
                l(5) =   2
     Q(r) pseudized with  8 coefficients,  rinner =    1.250   1.250   1.250
                                                       1.250   1.250

     atomic species   valence    mass     pseudopotential
        Na             9.00    11.00000     Na( 1.00)

     48 Sym. Ops., with inversion, found



   Cartesian axes

     site n.     atom                  positions (alat units)
         1           Na  tau(   1) = (   0.0000000   0.0000000   0.0000000  )

     number of k points=   961  Gaussian smearing, width (Ry)=  0.0200

     Number of k-points >= 100: set verbosity='high' to print them.

     Dense  grid:    40143 G-vectors     FFT dimensions: (  48,  48,  48)

     Smooth grid:    10005 G-vectors     FFT dimensions: (  30,  30,  30)

     Estimated max dynamical RAM per process >      12.52 MB

     Estimated total dynamical RAM >      87.63 MB

     The potential is recalculated from file :
     ./data/scf.save/charge-density

     Starting wfcs are    5 randomized atomic wfcs +   15 random wfcs

     Band Structure Calculation
     Davidson diagonalization with overlap

     ethr =  1.11E-10,  avg # of iterations = 31.5

     total cpu time spent up to now is       58.2 secs

     End of band structure calculation

     Number of k-points >= 100: set verbosity='high' to print the bands.

     Writing all to output data dir ./data/scf.save/
 
     init_run     :      0.12s CPU      0.30s WALL (       1 calls)
     electrons    :     53.91s CPU     56.18s WALL (       1 calls)

     Called by init_run:
     wfcinit      :      0.00s CPU      0.00s WALL (       1 calls)
     potinit      :      0.03s CPU      0.11s WALL (       1 calls)
     hinit0       :      0.04s CPU      0.13s WALL (       1 calls)

     Called by electrons:
     c_bands      :     53.90s CPU     56.18s WALL (       1 calls)
     v_of_rho     :      0.01s CPU      0.04s WALL (       1 calls)
     newd         :      0.01s CPU      0.01s WALL (       1 calls)

     Called by c_bands:
     init_us_2    :      0.03s CPU      0.04s WALL (     961 calls)
     init_us_2:cp :      0.03s CPU      0.04s WALL (     961 calls)
     cegterg      :     49.95s CPU     51.14s WALL (    1923 calls)

     Called by *egterg:
     cdiaghg      :     11.15s CPU     11.44s WALL (   31185 calls)
     h_psi        :     33.47s CPU     34.41s WALL (   33108 calls)
     s_psi        :      0.27s CPU      0.28s WALL (   33108 calls)
     g_psi        :      0.19s CPU      0.20s WALL (   30224 calls)

     Called by h_psi:
     h_psi:calbec :      1.19s CPU      1.22s WALL (   33108 calls)
     vloc_psi     :     31.83s CPU     32.73s WALL (   33108 calls)
     add_vuspsi   :      0.28s CPU      0.29s WALL (   33108 calls)

     General routines
     calbec       :      1.15s CPU      1.19s WALL (   33108 calls)
     fft          :      0.02s CPU      0.07s WALL (      12 calls)
     ffts         :      0.00s CPU      0.00s WALL (       1 calls)
     fftw         :     29.77s CPU     30.62s WALL (  644078 calls)
     interpolate  :      0.00s CPU      0.00s WALL (       1 calls)
     davcio       :      0.11s CPU      0.76s WALL (    1922 calls)
 
     Parallel routines
 
     PWSCF        :     57.55s CPU   1m 8.99s WALL

 
   This run was terminated on:  22:27:47  31May2026            

=------------------------------------------------------------------------------=
   JOB DONE.
=------------------------------------------------------------------------------=
