
     Program PWSCF v.7.1 starts on 31May2026 at 22:12: 8 

     This program is part of the open-source Quantum ESPRESSO suite
     for quantum simulation of materials; please cite
         "P. Giannozzi et al., J. Phys.:Condens. Matter 21 395502 (2009);
         "P. Giannozzi et al., J. Phys.:Condens. Matter 29 465901 (2017);
         "P. Giannozzi et al., J. Chem. Phys. 152 154105 (2020);
          URL http://www.quantum-espresso.org", 
     in publications or presentations arising from this work. More details at
     http://www.quantum-espresso.org/quote

     Parallel version (MPI & OpenMP), running on       7 processor cores
     Number of MPI processes:                 7
     Threads/MPI process:                     1

     MPI processes distributed on     7 nodes
     224251 MiB available memory on the printing compute node when the environment starts
 
     Waiting for input...
     Reading input from standard input
Warning: card &CELL ignored
Warning: card / ignored
Warning: card / ignored

     Current dimensions of program PWSCF are:
     Max number of different atomic species (ntypx) = 10
     Max number of k-points (npk) =  40000
     Max angular momentum in pseudopotentials (lmaxx) =  4
     Message from routine setup:
     using ibrav=0 with symmetry is DISCOURAGED, use correct ibrav instead
 
     R & G space division:  proc/nbgrp/npool/nimage =       7
     Subspace diagonalization in iterative solution of the eigenvalue problem:
     a serial algorithm will be used

 
     Parallelization info
     --------------------
     sticks:   dense  smooth     PW     G-vecs:    dense   smooth      PW
     Min         227      89     32                 5733     1428     310
     Max         228      90     34                 5735     1430     311
     Sum        1595     627    229                40143    10005    2171
 
     Using Slab Decomposition
 


     bravais-lattice index     =            0
     lattice parameter (alat)  =       6.8551  a.u.
     unit-cell volume          =     247.9822 (a.u.)^3
     number of atoms/cell      =            1
     number of atomic types    =            1
     number of electrons       =         9.00
     number of Kohn-Sham states=            9
     kinetic-energy cutoff     =      45.0000  Ry
     charge density cutoff     =     450.0000  Ry
     scf convergence threshold =      1.0E-08
     mixing beta               =       0.0750
     number of iterations used =            8  plain     mixing
     Exchange-correlation=  SLA  PW   PBX  PBC
                           (   1   4   3   4   0   0   0)

     celldm(1)=   6.855105  celldm(2)=   0.000000  celldm(3)=   0.000000
     celldm(4)=   0.000000  celldm(5)=   0.000000  celldm(6)=   0.000000

     crystal axes: (cart. coord. in units of alat)
               a(1) = (  -0.577350   0.577350   0.577350 )  
               a(2) = (   0.577350  -0.577350   0.577350 )  
               a(3) = (   0.577350   0.577350  -0.577350 )  

     reciprocal axes: (cart. coord. in units 2 pi/alat)
               b(1) = (  0.000000  0.866025  0.866025 )  
               b(2) = (  0.866025  0.000000  0.866025 )  
               b(3) = (  0.866025  0.866025  0.000000 )  


     PseudoPot. # 1 for Na read from file:
     /home/k0750/k075000/PSPOT/na_pbe_v1.5.uspp.F.UPF
     MD5 check sum: 44600605ef58000f06b90626533354dc
     Pseudo is Ultrasoft, Zval =  9.0
     Generated by new atomic code, or converted to UPF format
     Using radial grid of  819 points,  5 beta functions with: 
                l(1) =   0
                l(2) =   0
                l(3) =   1
                l(4) =   1
                l(5) =   2
     Q(r) pseudized with  8 coefficients,  rinner =    1.250   1.250   1.250
                                                       1.250   1.250

     atomic species   valence    mass     pseudopotential
        Na             9.00    11.00000     Na( 1.00)

     48 Sym. Ops., with inversion, found



   Cartesian axes

     site n.     atom                  positions (alat units)
         1           Na  tau(   1) = (   0.0000000   0.0000000   0.0000000  )

     number of k points=   256  Gaussian smearing, width (Ry)=  0.0200

     Number of k-points >= 100: set verbosity='high' to print them.

     Dense  grid:    40143 G-vectors     FFT dimensions: (  48,  48,  48)

     Smooth grid:    10005 G-vectors     FFT dimensions: (  30,  30,  30)

     Estimated max dynamical RAM per process >      20.47 MB

     Estimated total dynamical RAM >     143.31 MB

     Initial potential from superposition of free atoms

     starting charge       8.9937, renormalised to       9.0000
     Starting wfcs are    5 randomized atomic wfcs +    4 random wfcs

     total cpu time spent up to now is        1.0 secs

     Self-consistent Calculation

     iteration #  1     ecut=    45.00 Ry     beta= 0.07
     Davidson diagonalization with overlap
     ethr =  1.00E-02,  avg # of iterations =  6.6

     Threshold (ethr) on eigenvalues was too large:
     Diagonalizing with lowered threshold

     Davidson diagonalization with overlap
     c_bands:  1 eigenvalues not converged
     ethr =  9.83E-06,  avg # of iterations =  7.2

     total cpu time spent up to now is        4.4 secs

     total energy              =     -95.34472760 Ry
     estimated scf accuracy    <       0.00087518 Ry

     iteration #  2     ecut=    45.00 Ry     beta= 0.07
     Davidson diagonalization with overlap
     ethr =  9.72E-06,  avg # of iterations =  1.0

     total cpu time spent up to now is        5.2 secs

     total energy              =     -95.34507897 Ry
     estimated scf accuracy    <       0.00072012 Ry

     iteration #  3     ecut=    45.00 Ry     beta= 0.07
     Davidson diagonalization with overlap
     ethr =  8.00E-06,  avg # of iterations =  2.0

     total cpu time spent up to now is        6.2 secs

     total energy              =     -95.34541699 Ry
     estimated scf accuracy    <       0.00008004 Ry

     iteration #  4     ecut=    45.00 Ry     beta= 0.07
     Davidson diagonalization with overlap
     ethr =  8.89E-07,  avg # of iterations =  1.5

     total cpu time spent up to now is        7.1 secs

     total energy              =     -95.34561951 Ry
     estimated scf accuracy    <       0.00001178 Ry

     iteration #  5     ecut=    45.00 Ry     beta= 0.07
     Davidson diagonalization with overlap
     ethr =  1.31E-07,  avg # of iterations =  1.0

     total cpu time spent up to now is        8.0 secs

     total energy              =     -95.34573921 Ry
     estimated scf accuracy    <       0.00000120 Ry

     iteration #  6     ecut=    45.00 Ry     beta= 0.07
     Davidson diagonalization with overlap
     ethr =  1.34E-08,  avg # of iterations =  2.0

     total cpu time spent up to now is        9.0 secs

     total energy              =     -95.34583948 Ry
     estimated scf accuracy    <       0.00000134 Ry

     iteration #  7     ecut=    45.00 Ry     beta= 0.07
     Davidson diagonalization with overlap
     ethr =  1.34E-08,  avg # of iterations =  2.0

     total cpu time spent up to now is       10.1 secs

     End of self-consistent calculation

     Number of k-points >= 100: set verbosity='high' to print the bands.

     the Fermi energy is     1.6407 ev

!    total energy              =     -95.34620474 Ry
     estimated scf accuracy    <          2.6E-09 Ry
     smearing contrib. (-TS)   =      -0.00126731 Ry
     internal energy E=F+TS    =     -95.34493743 Ry

     The total energy is F=E-TS. E is the sum of the following terms:
     one-electron contribution =     -88.38486772 Ry
     hartree contribution      =      44.59261165 Ry
     xc contribution           =     -14.31252854 Ry
     ewald contribution        =     -37.24015282 Ry

     convergence has been achieved in   7 iterations

     Forces acting on atoms (cartesian axes, Ry/au):

     atom    1 type  1   force =     0.00000000    0.00000000    0.00000000

     Total force =     0.000000     Total SCF correction =     0.000000

     Writing all to output data dir ./data/scf.save/
 
     init_run     :      0.40s CPU      0.69s WALL (       1 calls)
     electrons    :      8.55s CPU      9.14s WALL (       1 calls)
     forces       :      0.06s CPU      0.06s WALL (       1 calls)

     Called by init_run:
     wfcinit      :      0.30s CPU      0.34s WALL (       1 calls)
     potinit      :      0.01s CPU      0.08s WALL (       1 calls)
     hinit0       :      0.03s CPU      0.22s WALL (       1 calls)

     Called by electrons:
     c_bands      :      7.19s CPU      7.67s WALL (       8 calls)
     sum_band     :      1.23s CPU      1.29s WALL (       8 calls)
     v_of_rho     :      0.06s CPU      0.11s WALL (       8 calls)
     newd         :      0.05s CPU      0.06s WALL (       8 calls)
     mix_rho      :      0.01s CPU      0.01s WALL (       8 calls)

     Called by c_bands:
     init_us_2    :      0.12s CPU      0.13s WALL (    4608 calls)
     init_us_2:cp :      0.12s CPU      0.12s WALL (    4608 calls)
     cegterg      :      6.82s CPU      7.14s WALL (    2048 calls)

     Called by *egterg:
     cdiaghg      :      0.62s CPU      0.66s WALL (    7751 calls)
     h_psi        :      5.43s CPU      5.71s WALL (    8263 calls)
     s_psi        :      0.05s CPU      0.05s WALL (    8263 calls)
     g_psi        :      0.02s CPU      0.03s WALL (    5959 calls)

     Called by h_psi:
     h_psi:calbec :      0.25s CPU      0.26s WALL (    8263 calls)
     vloc_psi     :      5.09s CPU      5.35s WALL (    8263 calls)
     add_vuspsi   :      0.06s CPU      0.06s WALL (    8263 calls)

     General routines
     calbec       :      0.33s CPU      0.35s WALL (   11335 calls)
     fft          :      0.05s CPU      0.14s WALL (     105 calls)
     ffts         :      0.01s CPU      0.01s WALL (      16 calls)
     fftw         :      5.68s CPU      5.95s WALL (  118736 calls)
     interpolate  :      0.00s CPU      0.01s WALL (       8 calls)
 
     Parallel routines
 
     PWSCF        :      9.52s CPU     13.13s WALL

 
   This run was terminated on:  22:12:21  31May2026            

=------------------------------------------------------------------------------=
   JOB DONE.
=------------------------------------------------------------------------------=
