
     Program PWSCF v.7.1 starts on 11Jun2026 at  3:35:58 

     This program is part of the open-source Quantum ESPRESSO suite
     for quantum simulation of materials; please cite
         "P. Giannozzi et al., J. Phys.:Condens. Matter 21 395502 (2009);
         "P. Giannozzi et al., J. Phys.:Condens. Matter 29 465901 (2017);
         "P. Giannozzi et al., J. Chem. Phys. 152 154105 (2020);
          URL http://www.quantum-espresso.org", 
     in publications or presentations arising from this work. More details at
     http://www.quantum-espresso.org/quote

     Parallel version (MPI & OpenMP), running on       7 processor cores
     Number of MPI processes:                 7
     Threads/MPI process:                     1

     MPI processes distributed on     7 nodes
     223573 MiB available memory on the printing compute node when the environment starts
 
     Waiting for input...
     Reading input from standard input
Warning: card &CELL ignored
Warning: card / ignored
Warning: card &FCP ignored
Warning: card / ignored
Warning: card &RISM ignored
Warning: card / ignored

     Current dimensions of program PWSCF are:
     Max number of different atomic species (ntypx) = 10
     Max number of k-points (npk) =  40000
     Max angular momentum in pseudopotentials (lmaxx) =  4
     Message from routine setup:
     using ibrav=0 with symmetry is DISCOURAGED, use correct ibrav instead
 
     R & G space division:  proc/nbgrp/npool/nimage =       7
     Subspace diagonalization in iterative solution of the eigenvalue problem:
     a serial algorithm will be used

 
     Parallelization info
     --------------------
     sticks:   dense  smooth     PW     G-vecs:    dense   smooth      PW
     Min          85      34     12                 5223     1324     248
     Max          85      35     13                 5233     1333     253
     Sum         595     241     85                36577     9297    1749
 
     Using Slab Decomposition
 


     bravais-lattice index     =            0
     lattice parameter (alat)  =       4.6633  a.u.
     unit-cell volume          =     270.4784 (a.u.)^3
     number of atoms/cell      =            4
     number of atomic types    =            1
     number of electrons       =        16.00
     number of Kohn-Sham states=           12
     kinetic-energy cutoff     =      40.0000  Ry
     charge density cutoff     =     400.0000  Ry
     scf convergence threshold =      1.0E-08
     mixing beta               =       0.3000
     number of iterations used =            8  plain     mixing
     Exchange-correlation= SLA  PW   PBE  PBE
                           (   1   4   3   4   0   0   0)

     celldm(1)=   4.663315  celldm(2)=   0.000000  celldm(3)=   0.000000
     celldm(4)=   0.000000  celldm(5)=   0.000000  celldm(6)=   0.000000

     crystal axes: (cart. coord. in units of alat)
               a(1) = (   1.000000   0.000000   0.000000 )  
               a(2) = (  -0.500000   0.866025   0.000000 )  
               a(3) = (   0.000000   0.000000   3.079766 )  

     reciprocal axes: (cart. coord. in units 2 pi/alat)
               b(1) = (  1.000000  0.577350  0.000000 )  
               b(2) = (  0.000000  1.154701  0.000000 )  
               b(3) = (  0.000000  0.000000  0.324700 )  


     PseudoPot. # 1 for C  read from file:
     /home/k0750/k075000/PSPOT/c_pbe_v1.2.uspp.F.UPF
     MD5 check sum: d1aef80898a10debaa0f26306b886e00
     Pseudo is Ultrasoft + core correction, Zval =  4.0
     Generated by new atomic code, or converted to UPF format
     Using radial grid of  721 points,  4 beta functions with: 
                l(1) =   0
                l(2) =   0
                l(3) =   1
                l(4) =   1
     Q(r) pseudized with  8 coefficients,  rinner =    1.100   1.100   1.100


     atomic species   valence    mass     pseudopotential
        C              4.00    12.01100     C ( 1.00)

      8 Sym. Ops., with inversion, found ( 4 have fractional translation)



   Cartesian axes

     site n.     atom                  positions (alat units)
         1           C   tau(   1) = (   0.0000000   0.0000000   2.3098245  )
         2           C   tau(   2) = (   0.0000000   0.0000000   0.7699415  )
         3           C   tau(   3) = (  -0.0000050   0.5773532   2.3098245  )
         4           C   tau(   4) = (   0.5000050   0.2886722   0.7699415  )

     number of k points=   215  Marzari-Vanderbilt smearing, width (Ry)=  0.0100

     Number of k-points >= 100: set verbosity='high' to print them.

     Dense  grid:    36577 G-vectors     FFT dimensions: (  30,  30,  96)

     Smooth grid:     9297 G-vectors     FFT dimensions: (  20,  20,  60)

     Estimated max dynamical RAM per process >      14.35 MB

     Estimated total dynamical RAM >     100.46 MB

     Initial potential from superposition of free atoms

     starting charge      15.9998, renormalised to      16.0000
     Starting wfcs are   16 randomized atomic wfcs

     total cpu time spent up to now is        0.6 secs

     Self-consistent Calculation

     iteration #  1     ecut=    40.00 Ry     beta= 0.30
     Davidson diagonalization with overlap
     ethr =  1.00E-02,  avg # of iterations =  2.8

     total cpu time spent up to now is        1.9 secs

     total energy              =     -46.00750133 Ry
     estimated scf accuracy    <       0.37253312 Ry

     iteration #  2     ecut=    40.00 Ry     beta= 0.30
     Davidson diagonalization with overlap
     ethr =  2.33E-03,  avg # of iterations =  1.2

     total cpu time spent up to now is        2.7 secs

     total energy              =     -45.93784362 Ry
     estimated scf accuracy    <       0.13490110 Ry

     iteration #  3     ecut=    40.00 Ry     beta= 0.30
     Davidson diagonalization with overlap
     ethr =  8.43E-04,  avg # of iterations =  3.9

     total cpu time spent up to now is        4.0 secs

     total energy              =     -45.96137625 Ry
     estimated scf accuracy    <       0.00300011 Ry

     iteration #  4     ecut=    40.00 Ry     beta= 0.30
     Davidson diagonalization with overlap
     ethr =  1.88E-05,  avg # of iterations =  5.6

     total cpu time spent up to now is        5.4 secs

     total energy              =     -45.95973594 Ry
     estimated scf accuracy    <       0.00627824 Ry

     iteration #  5     ecut=    40.00 Ry     beta= 0.30
     Davidson diagonalization with overlap
     ethr =  1.88E-05,  avg # of iterations =  3.2

     total cpu time spent up to now is        6.6 secs

     total energy              =     -45.96073554 Ry
     estimated scf accuracy    <       0.00000864 Ry

     iteration #  6     ecut=    40.00 Ry     beta= 0.30
     Davidson diagonalization with overlap
     ethr =  5.40E-08,  avg # of iterations =  3.9

     total cpu time spent up to now is        7.9 secs

     total energy              =     -45.96073933 Ry
     estimated scf accuracy    <       0.00000136 Ry

     iteration #  7     ecut=    40.00 Ry     beta= 0.30
     Davidson diagonalization with overlap
     ethr =  8.53E-09,  avg # of iterations =  2.0

     total cpu time spent up to now is        8.9 secs

     total energy              =     -45.96073964 Ry
     estimated scf accuracy    <       0.00000022 Ry

     iteration #  8     ecut=    40.00 Ry     beta= 0.30
     Davidson diagonalization with overlap
     ethr =  1.34E-09,  avg # of iterations =  1.8

     total cpu time spent up to now is        9.8 secs

     total energy              =     -45.96073977 Ry
     estimated scf accuracy    <       0.00000004 Ry

     iteration #  9     ecut=    40.00 Ry     beta= 0.30
     Davidson diagonalization with overlap
     ethr =  2.68E-10,  avg # of iterations =  1.1

     total cpu time spent up to now is       10.6 secs

     total energy              =     -45.96073981 Ry
     estimated scf accuracy    <       0.00000003 Ry

     iteration # 10     ecut=    40.00 Ry     beta= 0.30
     Davidson diagonalization with overlap
     ethr =  1.79E-10,  avg # of iterations =  2.1

     total cpu time spent up to now is       11.6 secs

     End of self-consistent calculation

     Number of k-points >= 100: set verbosity='high' to print the bands.

     the Fermi energy is     5.6894 ev

!    total energy              =     -45.96073987 Ry
     estimated scf accuracy    <          7.8E-10 Ry
     smearing contrib. (-TS)   =      -0.00008489 Ry
     internal energy E=F+TS    =     -45.96065498 Ry

     The total energy is F=E-TS. E is the sum of the following terms:
     one-electron contribution =     -21.41810648 Ry
     hartree contribution      =      17.86987219 Ry
     xc contribution           =     -14.53000194 Ry
     ewald contribution        =     -27.88241876 Ry

     convergence has been achieved in  10 iterations

     Forces acting on atoms (cartesian axes, Ry/au):

     atom    1 type  1   force =    -0.00002316    0.00001337    0.00000000
     atom    2 type  1   force =     0.00002316   -0.00001337    0.00000000
     atom    3 type  1   force =     0.00002315   -0.00001336    0.00000000
     atom    4 type  1   force =    -0.00002315    0.00001336    0.00000000

     Total force =     0.000053     Total SCF correction =     0.000000


     Computing stress (Cartesian axis) and pressure

          total   stress  (Ry/bohr**3)                   (kbar)     P=       -4.93
  -0.00006154  -0.00000004   0.00000000           -9.05       -0.01        0.00
  -0.00000004  -0.00006159   0.00000000           -0.01       -9.06        0.00
   0.00000000   0.00000000   0.00002267            0.00        0.00        3.33


     Writing all to output data dir ./tmp/graphite_d_3p80000.save/
 
     init_run     :      0.47s CPU      0.53s WALL (       1 calls)
     electrons    :     10.30s CPU     11.00s WALL (       1 calls)
     forces       :      0.09s CPU      0.10s WALL (       1 calls)
     stress       :      0.18s CPU      0.19s WALL (       1 calls)

     Called by init_run:
     wfcinit      :      0.40s CPU      0.41s WALL (       1 calls)
     potinit      :      0.01s CPU      0.03s WALL (       1 calls)
     hinit0       :      0.03s CPU      0.06s WALL (       1 calls)

     Called by electrons:
     c_bands      :      8.83s CPU      9.41s WALL (      10 calls)
     sum_band     :      1.38s CPU      1.45s WALL (      10 calls)
     v_of_rho     :      0.04s CPU      0.09s WALL (      11 calls)
     newd         :      0.03s CPU      0.03s WALL (      11 calls)
     mix_rho      :      0.01s CPU      0.01s WALL (      10 calls)

     Called by c_bands:
     init_us_2    :      0.11s CPU      0.11s WALL (    4945 calls)
     init_us_2:cp :      0.10s CPU      0.11s WALL (    4945 calls)
     cegterg      :      8.38s CPU      8.72s WALL (    2150 calls)

     Called by *egterg:
     cdiaghg      :      0.99s CPU      1.03s WALL (    8030 calls)
     h_psi        :      6.53s CPU      6.81s WALL (    8245 calls)
     s_psi        :      0.13s CPU      0.13s WALL (    8245 calls)
     g_psi        :      0.03s CPU      0.03s WALL (    5880 calls)

     Called by h_psi:
     h_psi:calbec :      0.40s CPU      0.41s WALL (    8245 calls)
     vloc_psi     :      5.95s CPU      6.21s WALL (    8245 calls)
     add_vuspsi   :      0.14s CPU      0.14s WALL (    8245 calls)

     General routines
     calbec       :      0.57s CPU      0.59s WALL (   11470 calls)
     fft          :      0.05s CPU      0.13s WALL (     166 calls)
     ffts         :      0.00s CPU      0.01s WALL (      21 calls)
     fftw         :      6.58s CPU      6.86s WALL (  167502 calls)
     interpolate  :      0.00s CPU      0.01s WALL (      11 calls)
 
     Parallel routines
 
     PWSCF        :     11.62s CPU     12.92s WALL

 
   This run was terminated on:   3:36:11  11Jun2026            

=------------------------------------------------------------------------------=
   JOB DONE.
=------------------------------------------------------------------------------=
