
     Program PWSCF v.7.1 starts on 11Jun2026 at  3:46: 2 

     This program is part of the open-source Quantum ESPRESSO suite
     for quantum simulation of materials; please cite
         "P. Giannozzi et al., J. Phys.:Condens. Matter 21 395502 (2009);
         "P. Giannozzi et al., J. Phys.:Condens. Matter 29 465901 (2017);
         "P. Giannozzi et al., J. Chem. Phys. 152 154105 (2020);
          URL http://www.quantum-espresso.org", 
     in publications or presentations arising from this work. More details at
     http://www.quantum-espresso.org/quote

     Parallel version (MPI & OpenMP), running on       7 processor cores
     Number of MPI processes:                 7
     Threads/MPI process:                     1

     MPI processes distributed on     7 nodes
     223760 MiB available memory on the printing compute node when the environment starts
 
     Waiting for input...
     Reading input from standard input
Warning: card &CELL ignored
Warning: card / ignored
Warning: card &FCP ignored
Warning: card / ignored
Warning: card &RISM ignored
Warning: card / ignored

     Current dimensions of program PWSCF are:
     Max number of different atomic species (ntypx) = 10
     Max number of k-points (npk) =  40000
     Max angular momentum in pseudopotentials (lmaxx) =  4

     IMPORTANT: XC functional enforced from input :
     Exchange-correlation= VDW-DF2-B86R
                           (   1   4  26   0   2   0   0)
     Any further DFT definition will be discarded
     Please, verify this is what you really want

     Message from routine setup:
     using ibrav=0 with symmetry is DISCOURAGED, use correct ibrav instead
 
     R & G space division:  proc/nbgrp/npool/nimage =       7
     Subspace diagonalization in iterative solution of the eigenvalue problem:
     a serial algorithm will be used

 
     Parallelization info
     --------------------
     sticks:   dense  smooth     PW     G-vecs:    dense   smooth      PW
     Min          85      34     12                 4115     1038     198
     Max          85      35     13                 4123     1047     203
     Sum         595     241     85                28819     7305    1395
 
     Using Slab Decomposition
 


     bravais-lattice index     =            0
     lattice parameter (alat)  =       4.6633  a.u.
     unit-cell volume          =     213.5356 (a.u.)^3
     number of atoms/cell      =            4
     number of atomic types    =            1
     number of electrons       =        16.00
     number of Kohn-Sham states=           12
     kinetic-energy cutoff     =      40.0000  Ry
     charge density cutoff     =     400.0000  Ry
     scf convergence threshold =      1.0E-08
     mixing beta               =       0.3000
     number of iterations used =            8  plain     mixing
     Exchange-correlation= VDW-DF2-B86R
                           (   1   4  26   0   2   0   0)

     celldm(1)=   4.663315  celldm(2)=   0.000000  celldm(3)=   0.000000
     celldm(4)=   0.000000  celldm(5)=   0.000000  celldm(6)=   0.000000

     crystal axes: (cart. coord. in units of alat)
               a(1) = (   1.000000   0.000000   0.000000 )  
               a(2) = (  -0.500000   0.866025   0.000000 )  
               a(3) = (   0.000000   0.000000   2.431394 )  

     reciprocal axes: (cart. coord. in units 2 pi/alat)
               b(1) = (  1.000000  0.577350  0.000000 )  
               b(2) = (  0.000000  1.154701  0.000000 )  
               b(3) = (  0.000000  0.000000  0.411287 )  


     PseudoPot. # 1 for C  read from file:
     /home/k0750/k075000/PSPOT/c_pbe_v1.2.uspp.F.UPF
     MD5 check sum: d1aef80898a10debaa0f26306b886e00
     Pseudo is Ultrasoft + core correction, Zval =  4.0
     Generated by new atomic code, or converted to UPF format
     Using radial grid of  721 points,  4 beta functions with: 
                l(1) =   0
                l(2) =   0
                l(3) =   1
                l(4) =   1
     Q(r) pseudized with  8 coefficients,  rinner =    1.100   1.100   1.100


     atomic species   valence    mass     pseudopotential
        C              4.00    12.01100     C ( 1.00)

      8 Sym. Ops., with inversion, found ( 4 have fractional translation)



   Cartesian axes

     site n.     atom                  positions (alat units)
         1           C   tau(   1) = (   0.0000000   0.0000000   1.8235456  )
         2           C   tau(   2) = (   0.0000000   0.0000000   0.6078485  )
         3           C   tau(   3) = (  -0.0000050   0.5773532   1.8235456  )
         4           C   tau(   4) = (   0.5000050   0.2886722   0.6078485  )

     number of k points=   215  Marzari-Vanderbilt smearing, width (Ry)=  0.0100

     Number of k-points >= 100: set verbosity='high' to print them.

     Dense  grid:    28819 G-vectors     FFT dimensions: (  30,  30,  80)

     Smooth grid:     7305 G-vectors     FFT dimensions: (  20,  20,  48)

     Estimated max dynamical RAM per process >      11.46 MB

     Estimated total dynamical RAM >      80.24 MB

     Initial potential from superposition of free atoms

     starting charge      15.9998, renormalised to      16.0000


     %%%%%%%%%%%%%%%%%%%%%%%%%%%%%%%%%%%%%%%%%%%%%%%%%%%%%%%%%%%%%%%%%%%%%%%%
     %                                                                      %
     % You are using vdW-DF, which was implemented by the Thonhauser group. %
     % Please cite the following two papers that made this development      %
     % possible and the two reviews that describe the various versions:     %
     %                                                                      %
     %   T. Thonhauser et al., PRL 115, 136402 (2015).                      %
     %   T. Thonhauser et al., PRB 76, 125112 (2007).                       %
     %   K. Berland et al., Rep. Prog. Phys. 78, 066501 (2015).             %
     %   D.C. Langreth et al., J. Phys.: Condens. Matter 21, 084203 (2009). %
     %                                                                      %
     % If you are calculating stress with vdW-DF, please also cite:         %
     %                                                                      %
     %   R. Sabatini et al., J. Phys.: Condens. Matter 24, 424209 (2012).   %
     %                                                                      %
     %%%%%%%%%%%%%%%%%%%%%%%%%%%%%%%%%%%%%%%%%%%%%%%%%%%%%%%%%%%%%%%%%%%%%%%%

     %%%%%%%%%%%%%%%%%%%%%%%%%%%%%%%%%%%%%%%%%%%%%%%%%%%%%%%%%%%%%%%%%%%%%%%%
     %                                                                      %
     %  vdW-DF NEWS:                                                        %
     %                                                                      %
     %  * vdW-DF3 is now available. DOI: 10.1021/acs.jctc.0c00471           %
     %    use with input_dft = 'vdW-DF3-opt1' or 'vdW-DF3-opt2'             %
     %                                                                      %
     %  * Unscreened and range-separated vdW-DF hybrid functionals          %
     %    DOI: 10.1063/1.4986522 and 10.1088/1361-648X/ac2ad2               %
     %    use with input_dft = 'vdW-DF-cx0' (etc) and 'vdW-DF-ahcx'         %
     %                                                                      %
     %%%%%%%%%%%%%%%%%%%%%%%%%%%%%%%%%%%%%%%%%%%%%%%%%%%%%%%%%%%%%%%%%%%%%%%%


     Starting wfcs are   16 randomized atomic wfcs

     total cpu time spent up to now is       13.3 secs

     Self-consistent Calculation

     iteration #  1     ecut=    40.00 Ry     beta= 0.30
     Davidson diagonalization with overlap
     ethr =  1.00E-02,  avg # of iterations =  2.6

     total cpu time spent up to now is       14.5 secs

     total energy              =     -46.04265667 Ry
     estimated scf accuracy    <       0.35061045 Ry

     iteration #  2     ecut=    40.00 Ry     beta= 0.30
     Davidson diagonalization with overlap
     ethr =  2.19E-03,  avg # of iterations =  1.2

     total cpu time spent up to now is       15.3 secs

     total energy              =     -45.97864968 Ry
     estimated scf accuracy    <       0.12786232 Ry

     iteration #  3     ecut=    40.00 Ry     beta= 0.30
     Davidson diagonalization with overlap
     ethr =  7.99E-04,  avg # of iterations =  3.7

     total cpu time spent up to now is       16.5 secs

     total energy              =     -45.99979220 Ry
     estimated scf accuracy    <       0.00262915 Ry

     iteration #  4     ecut=    40.00 Ry     beta= 0.30
     Davidson diagonalization with overlap
     c_bands:  1 eigenvalues not converged
     ethr =  1.64E-05,  avg # of iterations =  5.0

     total cpu time spent up to now is       17.7 secs

     total energy              =     -45.99919206 Ry
     estimated scf accuracy    <       0.00307402 Ry

     iteration #  5     ecut=    40.00 Ry     beta= 0.30
     Davidson diagonalization with overlap
     ethr =  1.64E-05,  avg # of iterations =  2.4

     total cpu time spent up to now is       18.7 secs

     total energy              =     -45.99966806 Ry
     estimated scf accuracy    <       0.00000874 Ry

     iteration #  6     ecut=    40.00 Ry     beta= 0.30
     Davidson diagonalization with overlap
     ethr =  5.46E-08,  avg # of iterations =  3.6

     total cpu time spent up to now is       19.8 secs

     total energy              =     -45.99966883 Ry
     estimated scf accuracy    <       0.00000264 Ry

     iteration #  7     ecut=    40.00 Ry     beta= 0.30
     Davidson diagonalization with overlap
     ethr =  1.65E-08,  avg # of iterations =  2.0

     total cpu time spent up to now is       20.7 secs

     total energy              =     -45.99966950 Ry
     estimated scf accuracy    <       0.00000009 Ry

     iteration #  8     ecut=    40.00 Ry     beta= 0.30
     Davidson diagonalization with overlap
     ethr =  5.88E-10,  avg # of iterations =  2.0

     total cpu time spent up to now is       21.6 secs

     End of self-consistent calculation

     Number of k-points >= 100: set verbosity='high' to print the bands.

     the Fermi energy is     8.2062 ev

!    total energy              =     -45.99966971 Ry
     estimated scf accuracy    <          9.9E-09 Ry
     smearing contrib. (-TS)   =      -0.00008484 Ry
     internal energy E=F+TS    =     -45.99958487 Ry

     The total energy is F=E-TS. E is the sum of the following terms:
     one-electron contribution =      -2.91959741 Ry
     hartree contribution      =      10.17977825 Ry
     xc contribution           =     -14.61201094 Ry
     ewald contribution        =     -38.64775477 Ry

     convergence has been achieved in   8 iterations

     Forces acting on atoms (cartesian axes, Ry/au):

     atom    1 type  1   force =    -0.00002493    0.00001439    0.00000000
     atom    2 type  1   force =     0.00002493   -0.00001439    0.00000000
     atom    3 type  1   force =     0.00002502   -0.00001444    0.00000000
     atom    4 type  1   force =    -0.00002502    0.00001444    0.00000000

     Total force =     0.000058     Total SCF correction =     0.000000


     Computing stress (Cartesian axis) and pressure

          total   stress  (Ry/bohr**3)                   (kbar)     P=        9.19
  -0.00013104  -0.00000009   0.00000000          -19.28       -0.01        0.00
  -0.00000009  -0.00013115   0.00000000           -0.01      -19.29        0.00
   0.00000000   0.00000000   0.00044958            0.00        0.00       66.14


     Writing all to output data dir ./tmp/graphite_d_3p00000.save/
 
     init_run     :     13.10s CPU     13.26s WALL (       1 calls)
     electrons    :      7.58s CPU      8.31s WALL (       1 calls)
     forces       :      0.10s CPU      0.12s WALL (       1 calls)
     stress       :      0.20s CPU      0.24s WALL (       1 calls)

     Called by init_run:
     wfcinit      :      0.36s CPU      0.40s WALL (       1 calls)
     potinit      :     12.70s CPU     12.79s WALL (       1 calls)
     hinit0       :      0.03s CPU      0.06s WALL (       1 calls)

     Called by electrons:
     c_bands      :      6.38s CPU      6.84s WALL (       8 calls)
     sum_band     :      0.99s CPU      1.05s WALL (       8 calls)
     v_of_rho     :     12.86s CPU     13.15s WALL (       9 calls)
     newd         :      0.02s CPU      0.02s WALL (       9 calls)
     mix_rho      :      0.01s CPU      0.01s WALL (       8 calls)
     vdW_kernel   :     12.67s CPU     12.70s WALL (       1 calls)

     Called by c_bands:
     init_us_2    :      0.07s CPU      0.08s WALL (    4085 calls)
     init_us_2:cp :      0.07s CPU      0.07s WALL (    4085 calls)
     cegterg      :      6.06s CPU      6.34s WALL (    1720 calls)

     Called by *egterg:
     cdiaghg      :      0.83s CPU      0.89s WALL (    6559 calls)
     h_psi        :      4.63s CPU      4.85s WALL (    6774 calls)
     s_psi        :      0.09s CPU      0.09s WALL (    6774 calls)
     g_psi        :      0.02s CPU      0.02s WALL (    4839 calls)

     Called by h_psi:
     h_psi:calbec :      0.30s CPU      0.31s WALL (    6774 calls)
     vloc_psi     :      4.21s CPU      4.41s WALL (    6774 calls)
     add_vuspsi   :      0.09s CPU      0.10s WALL (    6774 calls)

     General routines
     calbec       :      0.44s CPU      0.46s WALL (    9569 calls)
     fft          :      0.16s CPU      0.50s WALL (     734 calls)
     ffts         :      0.03s CPU      0.04s WALL (      17 calls)
     fftw         :      4.62s CPU      4.84s WALL (  139534 calls)
     interpolate  :      0.00s CPU      0.01s WALL (       9 calls)
 
     Parallel routines
 
     PWSCF        :     21.54s CPU     23.54s WALL

 
   This run was terminated on:   3:46:25  11Jun2026            

=------------------------------------------------------------------------------=
   JOB DONE.
=------------------------------------------------------------------------------=
