
     Program PWSCF v.7.1 starts on 11Jun2026 at  3:36:48 

     This program is part of the open-source Quantum ESPRESSO suite
     for quantum simulation of materials; please cite
         "P. Giannozzi et al., J. Phys.:Condens. Matter 21 395502 (2009);
         "P. Giannozzi et al., J. Phys.:Condens. Matter 29 465901 (2017);
         "P. Giannozzi et al., J. Chem. Phys. 152 154105 (2020);
          URL http://www.quantum-espresso.org", 
     in publications or presentations arising from this work. More details at
     http://www.quantum-espresso.org/quote

     Parallel version (MPI & OpenMP), running on       7 processor cores
     Number of MPI processes:                 7
     Threads/MPI process:                     1

     MPI processes distributed on     7 nodes
     223404 MiB available memory on the printing compute node when the environment starts
 
     Waiting for input...
     Reading input from standard input
Warning: card &CELL ignored
Warning: card / ignored
Warning: card &FCP ignored
Warning: card / ignored
Warning: card &RISM ignored
Warning: card / ignored

     Current dimensions of program PWSCF are:
     Max number of different atomic species (ntypx) = 10
     Max number of k-points (npk) =  40000
     Max angular momentum in pseudopotentials (lmaxx) =  4
     Message from routine setup:
     using ibrav=0 with symmetry is DISCOURAGED, use correct ibrav instead
 
     R & G space division:  proc/nbgrp/npool/nimage =       7
     Subspace diagonalization in iterative solution of the eigenvalue problem:
     a serial algorithm will be used

 
     Parallelization info
     --------------------
     sticks:   dense  smooth     PW     G-vecs:    dense   smooth      PW
     Min          85      34     12                 6165     1554     298
     Max          85      35     13                 6177     1565     305
     Sum         595     241     85                43183    10917    2103
 
     Using Slab Decomposition
 


     bravais-lattice index     =            0
     lattice parameter (alat)  =       4.6633  a.u.
     unit-cell volume          =     320.3034 (a.u.)^3
     number of atoms/cell      =            4
     number of atomic types    =            1
     number of electrons       =        16.00
     number of Kohn-Sham states=           12
     kinetic-energy cutoff     =      40.0000  Ry
     charge density cutoff     =     400.0000  Ry
     scf convergence threshold =      1.0E-08
     mixing beta               =       0.3000
     number of iterations used =            8  plain     mixing
     Exchange-correlation= SLA  PW   PBE  PBE
                           (   1   4   3   4   0   0   0)

     celldm(1)=   4.663315  celldm(2)=   0.000000  celldm(3)=   0.000000
     celldm(4)=   0.000000  celldm(5)=   0.000000  celldm(6)=   0.000000

     crystal axes: (cart. coord. in units of alat)
               a(1) = (   1.000000   0.000000   0.000000 )  
               a(2) = (  -0.500000   0.866025   0.000000 )  
               a(3) = (   0.000000   0.000000   3.647091 )  

     reciprocal axes: (cart. coord. in units 2 pi/alat)
               b(1) = (  1.000000  0.577350  0.000000 )  
               b(2) = (  0.000000  1.154701  0.000000 )  
               b(3) = (  0.000000  0.000000  0.274191 )  


     PseudoPot. # 1 for C  read from file:
     /home/k0750/k075000/PSPOT/c_pbe_v1.2.uspp.F.UPF
     MD5 check sum: d1aef80898a10debaa0f26306b886e00
     Pseudo is Ultrasoft + core correction, Zval =  4.0
     Generated by new atomic code, or converted to UPF format
     Using radial grid of  721 points,  4 beta functions with: 
                l(1) =   0
                l(2) =   0
                l(3) =   1
                l(4) =   1
     Q(r) pseudized with  8 coefficients,  rinner =    1.100   1.100   1.100


     atomic species   valence    mass     pseudopotential
        C              4.00    12.01100     C ( 1.00)

      8 Sym. Ops., with inversion, found ( 4 have fractional translation)



   Cartesian axes

     site n.     atom                  positions (alat units)
         1           C   tau(   1) = (   0.0000000   0.0000000   2.7353184  )
         2           C   tau(   2) = (   0.0000000   0.0000000   0.9117728  )
         3           C   tau(   3) = (  -0.0000050   0.5773532   2.7353184  )
         4           C   tau(   4) = (   0.5000050   0.2886722   0.9117728  )

     number of k points=   215  Marzari-Vanderbilt smearing, width (Ry)=  0.0100

     Number of k-points >= 100: set verbosity='high' to print them.

     Dense  grid:    43183 G-vectors     FFT dimensions: (  30,  30, 120)

     Smooth grid:    10917 G-vectors     FFT dimensions: (  20,  20,  72)

     Estimated max dynamical RAM per process >      16.95 MB

     Estimated total dynamical RAM >     118.62 MB

     Initial potential from superposition of free atoms

     starting charge      15.9998, renormalised to      16.0000
     Starting wfcs are   16 randomized atomic wfcs

     total cpu time spent up to now is        0.7 secs

     Self-consistent Calculation

     iteration #  1     ecut=    40.00 Ry     beta= 0.30
     Davidson diagonalization with overlap
     ethr =  1.00E-02,  avg # of iterations =  3.0

     total cpu time spent up to now is        2.2 secs

     total energy              =     -46.00934571 Ry
     estimated scf accuracy    <       0.37901493 Ry

     iteration #  2     ecut=    40.00 Ry     beta= 0.30
     Davidson diagonalization with overlap
     ethr =  2.37E-03,  avg # of iterations =  1.5

     total cpu time spent up to now is        3.2 secs

     total energy              =     -45.93724905 Ry
     estimated scf accuracy    <       0.13707178 Ry

     iteration #  3     ecut=    40.00 Ry     beta= 0.30
     Davidson diagonalization with overlap
     ethr =  8.57E-04,  avg # of iterations =  4.1

     total cpu time spent up to now is        4.6 secs

     total energy              =     -45.96234267 Ry
     estimated scf accuracy    <       0.00333169 Ry

     iteration #  4     ecut=    40.00 Ry     beta= 0.30
     Davidson diagonalization with overlap
     ethr =  2.08E-05,  avg # of iterations =  5.9

     total cpu time spent up to now is        6.3 secs

     total energy              =     -45.95999085 Ry
     estimated scf accuracy    <       0.00848271 Ry

     iteration #  5     ecut=    40.00 Ry     beta= 0.30
     Davidson diagonalization with overlap
     ethr =  2.08E-05,  avg # of iterations =  3.1

     total cpu time spent up to now is        7.7 secs

     total energy              =     -45.96134660 Ry
     estimated scf accuracy    <       0.00000345 Ry

     iteration #  6     ecut=    40.00 Ry     beta= 0.30
     Davidson diagonalization with overlap
     ethr =  2.16E-08,  avg # of iterations =  4.2

     total cpu time spent up to now is        9.3 secs

     total energy              =     -45.96135162 Ry
     estimated scf accuracy    <       0.00000125 Ry

     iteration #  7     ecut=    40.00 Ry     beta= 0.30
     Davidson diagonalization with overlap
     ethr =  7.83E-09,  avg # of iterations =  2.0

     total cpu time spent up to now is       10.4 secs

     total energy              =     -45.96135188 Ry
     estimated scf accuracy    <       0.00000041 Ry

     iteration #  8     ecut=    40.00 Ry     beta= 0.30
     Davidson diagonalization with overlap
     ethr =  2.55E-09,  avg # of iterations =  1.4

     total cpu time spent up to now is       11.3 secs

     total energy              =     -45.96135203 Ry
     estimated scf accuracy    <       0.00000006 Ry

     iteration #  9     ecut=    40.00 Ry     beta= 0.30
     Davidson diagonalization with overlap
     ethr =  3.87E-10,  avg # of iterations =  2.0

     total cpu time spent up to now is       12.5 secs

     End of self-consistent calculation

     Number of k-points >= 100: set verbosity='high' to print the bands.

     the Fermi energy is     4.1557 ev

!    total energy              =     -45.96135219 Ry
     estimated scf accuracy    <          4.0E-10 Ry
     smearing contrib. (-TS)   =      -0.00014891 Ry
     internal energy E=F+TS    =     -45.96120328 Ry

     The total energy is F=E-TS. E is the sum of the following terms:
     one-electron contribution =     -38.43483016 Ry
     hartree contribution      =      25.46718003 Ry
     xc contribution           =     -14.52653115 Ry
     ewald contribution        =     -18.46702200 Ry

     convergence has been achieved in   9 iterations

     Forces acting on atoms (cartesian axes, Ry/au):

     atom    1 type  1   force =    -0.00002072    0.00001197    0.00000000
     atom    2 type  1   force =     0.00002072   -0.00001197    0.00000000
     atom    3 type  1   force =     0.00002067   -0.00001194    0.00000000
     atom    4 type  1   force =    -0.00002067    0.00001194    0.00000000

     Total force =     0.000048     Total SCF correction =     0.000000


     Computing stress (Cartesian axis) and pressure

          total   stress  (Ry/bohr**3)                   (kbar)     P=       -5.64
  -0.00004771  -0.00000001   0.00000000           -7.02       -0.00        0.00
  -0.00000001  -0.00004772   0.00000000           -0.00       -7.02        0.00
   0.00000000   0.00000000  -0.00001956            0.00        0.00       -2.88


     Writing all to output data dir ./tmp/graphite_d_4p50000.save/
 
     init_run     :      0.55s CPU      0.63s WALL (       1 calls)
     electrons    :     11.15s CPU     11.81s WALL (       1 calls)
     forces       :      0.11s CPU      0.11s WALL (       1 calls)
     stress       :      0.21s CPU      0.21s WALL (       1 calls)

     Called by init_run:
     wfcinit      :      0.47s CPU      0.48s WALL (       1 calls)
     potinit      :      0.01s CPU      0.04s WALL (       1 calls)
     hinit0       :      0.04s CPU      0.07s WALL (       1 calls)

     Called by electrons:
     c_bands      :      9.55s CPU     10.08s WALL (       9 calls)
     sum_band     :      1.50s CPU      1.56s WALL (       9 calls)
     v_of_rho     :      0.06s CPU      0.12s WALL (      10 calls)
     newd         :      0.03s CPU      0.03s WALL (      10 calls)
     mix_rho      :      0.01s CPU      0.01s WALL (       9 calls)

     Called by c_bands:
     init_us_2    :      0.12s CPU      0.12s WALL (    4515 calls)
     init_us_2:cp :      0.11s CPU      0.12s WALL (    4515 calls)
     cegterg      :      9.07s CPU      9.41s WALL (    1935 calls)

     Called by *egterg:
     cdiaghg      :      0.97s CPU      1.01s WALL (    7773 calls)
     h_psi        :      7.26s CPU      7.53s WALL (    7988 calls)
     s_psi        :      0.15s CPU      0.15s WALL (    7988 calls)
     g_psi        :      0.03s CPU      0.04s WALL (    5838 calls)

     Called by h_psi:
     h_psi:calbec :      0.40s CPU      0.41s WALL (    7988 calls)
     vloc_psi     :      6.67s CPU      6.93s WALL (    7988 calls)
     add_vuspsi   :      0.15s CPU      0.16s WALL (    7988 calls)

     General routines
     calbec       :      0.56s CPU      0.58s WALL (   10998 calls)
     fft          :      0.07s CPU      0.18s WALL (     153 calls)
     ffts         :      0.00s CPU      0.01s WALL (      19 calls)
     fftw         :      7.36s CPU      7.63s WALL (  157486 calls)
     interpolate  :      0.00s CPU      0.01s WALL (      10 calls)
 
     Parallel routines
 
     PWSCF        :     12.62s CPU     13.88s WALL

 
   This run was terminated on:   3:37: 2  11Jun2026            

=------------------------------------------------------------------------------=
   JOB DONE.
=------------------------------------------------------------------------------=
