
     Program PWSCF v.7.1 starts on 11Jun2026 at  3:38: 8 

     This program is part of the open-source Quantum ESPRESSO suite
     for quantum simulation of materials; please cite
         "P. Giannozzi et al., J. Phys.:Condens. Matter 21 395502 (2009);
         "P. Giannozzi et al., J. Phys.:Condens. Matter 29 465901 (2017);
         "P. Giannozzi et al., J. Chem. Phys. 152 154105 (2020);
          URL http://www.quantum-espresso.org", 
     in publications or presentations arising from this work. More details at
     http://www.quantum-espresso.org/quote

     Parallel version (MPI & OpenMP), running on       7 processor cores
     Number of MPI processes:                 7
     Threads/MPI process:                     1

     MPI processes distributed on     7 nodes
     223049 MiB available memory on the printing compute node when the environment starts
 
     Waiting for input...
     Reading input from standard input
Warning: card &CELL ignored
Warning: card / ignored
Warning: card &FCP ignored
Warning: card / ignored
Warning: card &RISM ignored
Warning: card / ignored

     Current dimensions of program PWSCF are:
     Max number of different atomic species (ntypx) = 10
     Max number of k-points (npk) =  40000
     Max angular momentum in pseudopotentials (lmaxx) =  4
     Message from routine setup:
     using ibrav=0 with symmetry is DISCOURAGED, use correct ibrav instead
 
     R & G space division:  proc/nbgrp/npool/nimage =       7
     Subspace diagonalization in iterative solution of the eigenvalue problem:
     a serial algorithm will be used

 
     Parallelization info
     --------------------
     sticks:   dense  smooth     PW     G-vecs:    dense   smooth      PW
     Min          85      34     12                 9603     2426     462
     Max          85      35     13                 9621     2443     473
     Sum         595     241     85                67255    17039    3265
 
     Using Slab Decomposition
 


     bravais-lattice index     =            0
     lattice parameter (alat)  =       4.6633  a.u.
     unit-cell volume          =     498.2497 (a.u.)^3
     number of atoms/cell      =            4
     number of atomic types    =            1
     number of electrons       =        16.00
     number of Kohn-Sham states=           12
     kinetic-energy cutoff     =      40.0000  Ry
     charge density cutoff     =     400.0000  Ry
     scf convergence threshold =      1.0E-08
     mixing beta               =       0.3000
     number of iterations used =            8  plain     mixing
     Exchange-correlation= SLA  PW   PBE  PBE
                           (   1   4   3   4   0   0   0)

     celldm(1)=   4.663315  celldm(2)=   0.000000  celldm(3)=   0.000000
     celldm(4)=   0.000000  celldm(5)=   0.000000  celldm(6)=   0.000000

     crystal axes: (cart. coord. in units of alat)
               a(1) = (   1.000000   0.000000   0.000000 )  
               a(2) = (  -0.500000   0.866025   0.000000 )  
               a(3) = (   0.000000   0.000000   5.673253 )  

     reciprocal axes: (cart. coord. in units 2 pi/alat)
               b(1) = (  1.000000  0.577350  0.000000 )  
               b(2) = (  0.000000  1.154701  0.000000 )  
               b(3) = (  0.000000  0.000000  0.176266 )  


     PseudoPot. # 1 for C  read from file:
     /home/k0750/k075000/PSPOT/c_pbe_v1.2.uspp.F.UPF
     MD5 check sum: d1aef80898a10debaa0f26306b886e00
     Pseudo is Ultrasoft + core correction, Zval =  4.0
     Generated by new atomic code, or converted to UPF format
     Using radial grid of  721 points,  4 beta functions with: 
                l(1) =   0
                l(2) =   0
                l(3) =   1
                l(4) =   1
     Q(r) pseudized with  8 coefficients,  rinner =    1.100   1.100   1.100


     atomic species   valence    mass     pseudopotential
        C              4.00    12.01100     C ( 1.00)

      8 Sym. Ops., with inversion, found ( 4 have fractional translation)



   Cartesian axes

     site n.     atom                  positions (alat units)
         1           C   tau(   1) = (   0.0000000   0.0000000   4.2549398  )
         2           C   tau(   2) = (   0.0000000   0.0000000   1.4183133  )
         3           C   tau(   3) = (  -0.0000050   0.5773532   4.2549398  )
         4           C   tau(   4) = (   0.5000050   0.2886722   1.4183133  )

     number of k points=   215  Marzari-Vanderbilt smearing, width (Ry)=  0.0100

     Number of k-points >= 100: set verbosity='high' to print them.

     Dense  grid:    67255 G-vectors     FFT dimensions: (  30,  30, 180)

     Smooth grid:    17039 G-vectors     FFT dimensions: (  20,  20, 108)

     Estimated max dynamical RAM per process >      26.04 MB

     Estimated total dynamical RAM >     182.28 MB

     Initial potential from superposition of free atoms

     starting charge      15.9998, renormalised to      16.0000
     Starting wfcs are   16 randomized atomic wfcs

     total cpu time spent up to now is        0.9 secs

     Self-consistent Calculation

     iteration #  1     ecut=    40.00 Ry     beta= 0.30
     Davidson diagonalization with overlap
     ethr =  1.00E-02,  avg # of iterations =  2.6

     total cpu time spent up to now is        2.8 secs

     total energy              =     -46.01025030 Ry
     estimated scf accuracy    <       0.37876992 Ry

     iteration #  2     ecut=    40.00 Ry     beta= 0.30
     Davidson diagonalization with overlap
     ethr =  2.37E-03,  avg # of iterations =  1.4

     total cpu time spent up to now is        4.1 secs

     total energy              =     -45.93601666 Ry
     estimated scf accuracy    <       0.13855193 Ry

     iteration #  3     ecut=    40.00 Ry     beta= 0.30
     Davidson diagonalization with overlap
     ethr =  8.66E-04,  avg # of iterations =  4.0

     total cpu time spent up to now is        5.9 secs

     total energy              =     -45.96280037 Ry
     estimated scf accuracy    <       0.00368874 Ry

     iteration #  4     ecut=    40.00 Ry     beta= 0.30
     Davidson diagonalization with overlap
     c_bands:  1 eigenvalues not converged
     ethr =  2.31E-05,  avg # of iterations =  8.3

     negative rho (up, down):  2.731E-07 0.000E+00

     total cpu time spent up to now is        8.4 secs

     total energy              =     -45.95900674 Ry
     estimated scf accuracy    <       0.01226694 Ry

     iteration #  5     ecut=    40.00 Ry     beta= 0.30
     Davidson diagonalization with overlap
     ethr =  2.31E-05,  avg # of iterations =  4.4

     negative rho (up, down):  2.354E-07 0.000E+00

     total cpu time spent up to now is       10.4 secs

     total energy              =     -45.96104950 Ry
     estimated scf accuracy    <       0.00001390 Ry

     iteration #  6     ecut=    40.00 Ry     beta= 0.30
     Davidson diagonalization with overlap
     ethr =  8.69E-08,  avg # of iterations =  4.2

     negative rho (up, down):  3.142E-07 0.000E+00

     total cpu time spent up to now is       12.3 secs

     total energy              =     -45.96105652 Ry
     estimated scf accuracy    <       0.00000146 Ry

     iteration #  7     ecut=    40.00 Ry     beta= 0.30
     Davidson diagonalization with overlap
     ethr =  9.13E-09,  avg # of iterations =  2.0

     negative rho (up, down):  3.692E-07 0.000E+00

     total cpu time spent up to now is       13.8 secs

     total energy              =     -45.96105625 Ry
     estimated scf accuracy    <       0.00000128 Ry

     iteration #  8     ecut=    40.00 Ry     beta= 0.30
     Davidson diagonalization with overlap
     ethr =  7.97E-09,  avg # of iterations =  2.0

     negative rho (up, down):  4.136E-07 0.000E+00

     total cpu time spent up to now is       15.2 secs

     total energy              =     -45.96105641 Ry
     estimated scf accuracy    <       0.00000010 Ry

     iteration #  9     ecut=    40.00 Ry     beta= 0.30
     Davidson diagonalization with overlap
     ethr =  6.49E-10,  avg # of iterations =  2.0

     negative rho (up, down):  5.552E-07 0.000E+00

     total cpu time spent up to now is       16.6 secs

     End of self-consistent calculation

     Number of k-points >= 100: set verbosity='high' to print the bands.

     the Fermi energy is     1.1608 ev

!    total energy              =     -45.96105652 Ry
     estimated scf accuracy    <          3.8E-09 Ry
     smearing contrib. (-TS)   =      -0.00018232 Ry
     internal energy E=F+TS    =     -45.96087420 Ry

     The total energy is F=E-TS. E is the sum of the following terms:
     one-electron contribution =    -102.15814269 Ry
     hartree contribution      =      55.56557311 Ry
     xc contribution           =     -14.52597266 Ry
     ewald contribution        =      15.15766805 Ry

     convergence has been achieved in   9 iterations

     negative rho (up, down):  5.552E-07 0.000E+00

     Forces acting on atoms (cartesian axes, Ry/au):

     atom    1 type  1   force =    -0.00002016    0.00001164    0.00000000
     atom    2 type  1   force =     0.00002016   -0.00001164    0.00000000
     atom    3 type  1   force =     0.00002020   -0.00001167    0.00000000
     atom    4 type  1   force =    -0.00002020    0.00001167    0.00000000

     Total force =     0.000047     Total SCF correction =     0.000000


     Computing stress (Cartesian axis) and pressure


     negative rho (up, down):  5.552E-07 0.000E+00
          total   stress  (Ry/bohr**3)                   (kbar)     P=       -3.72
  -0.00003161   0.00000000   0.00000000           -4.65        0.00        0.00
   0.00000000  -0.00003161   0.00000000            0.00       -4.65        0.00
   0.00000000   0.00000000  -0.00001269            0.00        0.00       -1.87


     Writing all to output data dir ./tmp/graphite_d_7p00000.save/
 
     init_run     :      0.74s CPU      0.83s WALL (       1 calls)
     electrons    :     15.10s CPU     15.78s WALL (       1 calls)
     forces       :      0.14s CPU      0.14s WALL (       1 calls)
     stress       :      0.31s CPU      0.32s WALL (       1 calls)

     Called by init_run:
     wfcinit      :      0.61s CPU      0.63s WALL (       1 calls)
     potinit      :      0.02s CPU      0.04s WALL (       1 calls)
     hinit0       :      0.03s CPU      0.08s WALL (       1 calls)

     Called by electrons:
     c_bands      :     12.94s CPU     13.49s WALL (       9 calls)
     sum_band     :      1.95s CPU      2.04s WALL (       9 calls)
     v_of_rho     :      0.13s CPU      0.16s WALL (      10 calls)
     newd         :      0.05s CPU      0.06s WALL (      10 calls)
     mix_rho      :      0.02s CPU      0.02s WALL (       9 calls)

     Called by c_bands:
     init_us_2    :      0.17s CPU      0.17s WALL (    4515 calls)
     init_us_2:cp :      0.16s CPU      0.17s WALL (    4515 calls)
     cegterg      :     12.29s CPU     12.62s WALL (    1935 calls)

     Called by *egterg:
     cdiaghg      :      1.08s CPU      1.11s WALL (    8569 calls)
     h_psi        :     10.02s CPU     10.31s WALL (    8784 calls)
     s_psi        :      0.21s CPU      0.22s WALL (    8784 calls)
     g_psi        :      0.05s CPU      0.05s WALL (    6634 calls)

     Called by h_psi:
     h_psi:calbec :      0.53s CPU      0.55s WALL (    8784 calls)
     vloc_psi     :      9.21s CPU      9.48s WALL (    8784 calls)
     add_vuspsi   :      0.23s CPU      0.23s WALL (    8784 calls)

     General routines
     calbec       :      0.75s CPU      0.77s WALL (   11794 calls)
     fft          :      0.14s CPU      0.23s WALL (     153 calls)
     ffts         :      0.00s CPU      0.02s WALL (      19 calls)
     fftw         :     10.10s CPU     10.38s WALL (  161858 calls)
     interpolate  :      0.01s CPU      0.02s WALL (      10 calls)
 
     Parallel routines
 
     PWSCF        :     16.94s CPU     18.23s WALL

 
   This run was terminated on:   3:38:27  11Jun2026            

=------------------------------------------------------------------------------=
   JOB DONE.
=------------------------------------------------------------------------------=
