
     Program PWSCF v.7.4.1 starts on  7Jul2025 at 14:49:51 

     This program is part of the open-source Quantum ESPRESSO suite
     for quantum simulation of materials; please cite
         "P. Giannozzi et al., J. Phys.:Condens. Matter 21 395502 (2009);
         "P. Giannozzi et al., J. Phys.:Condens. Matter 29 465901 (2017);
         "P. Giannozzi et al., J. Chem. Phys. 152 154105 (2020);
          URL http://www.quantum-espresso.org", 
     in publications or presentations arising from this work. More details at
     http://www.quantum-espresso.org/quote

     Parallel version (MPI & OpenMP), running on     100 processor cores
     Number of MPI processes:               100
     Threads/MPI process:                     1

     MPI processes distributed on     1 nodes
     3054833 MiB available memory on the printing compute node when the environment starts
 
     Waiting for input...
     Reading input from standard input

     Current dimensions of program PWSCF are:
     Max number of different atomic species (ntypx) = 10
     Max number of k-points (npk) =  40000
     Max angular momentum in pseudopotentials (lmaxx) =  4
     Message from routine setup:
     using ibrav=0 with symmetry is DISCOURAGED, use correct ibrav instead
 
     K-points division:     npool     =       2
     R & G space division:  proc/nbgrp/npool/nimage =      50
     Subspace diagonalization in iterative solution of the eigenvalue problem:
     a serial algorithm will be used

 
     Parallelization info
     --------------------
     sticks:   dense  smooth     PW     G-vecs:    dense   smooth      PW
     Min         149      71     17                10703     3557     441
     Max         150      72     18                10707     3564     448
     Sum        7455    3569    891               535233   177971   22259
 
     Using Slab Decomposition
 


     bravais-lattice index     =            0
     lattice parameter (alat)  =      13.2281  a.u.
     unit-cell volume          =    2834.3005 (a.u.)^3
     number of atoms/cell      =            1
     number of atomic types    =            1
     number of electrons       =         6.00
     number of Kohn-Sham states=            7
     kinetic-energy cutoff     =      60.0000  Ry
     charge density cutoff     =     500.0000  Ry
     scf convergence threshold =      1.0E-08
     mixing beta               =       0.7000
     number of iterations used =            8  plain     mixing
     energy convergence thresh.=      1.0E-04
     force convergence thresh. =      1.0E-03
     Exchange-correlation= SLA  PW   PSX  PSC
                           (   1   4  10   8   0   0   0)
     nstep                     =           50


     celldm(1)=  13.228083  celldm(2)=   0.000000  celldm(3)=   0.000000
     celldm(4)=   0.000000  celldm(5)=   0.000000  celldm(6)=   0.000000

     crystal axes: (cart. coord. in units of alat)
               a(1) = (   1.000000   0.000000   0.000000 )  
               a(2) = (   0.000000   1.071429   0.000000 )  
               a(3) = (   0.000000   0.000000   1.142857 )  

     reciprocal axes: (cart. coord. in units 2 pi/alat)
               b(1) = (  1.000000  0.000000  0.000000 )  
               b(2) = (  0.000000  0.933333  0.000000 )  
               b(3) = (  0.000000  0.000000  0.875000 )  


     PseudoPot. # 1 for O  read from file:
     /home/m0049/m004905/PSPOT/o_pbesol_v1.2.uspp.F.UPF
     MD5 check sum: 501638753501ef6325af9037351f7734
     Pseudo is Ultrasoft + core correction, Zval =  6.0
     Generated by new atomic code, or converted to UPF format
     Using radial grid of  737 points,  5 beta functions with: 
                l(1) =   0
                l(2) =   0
                l(3) =   1
                l(4) =   1
                l(5) =   2
     Q(r) pseudized with  8 coefficients,  rinner =    0.900   0.900   0.900
                                                       0.900   0.900

     atomic species   valence    mass     pseudopotential
     O                 6.00    15.99900     O ( 1.00)

     Starting magnetic structure 
     atomic species   magnetization
     O               0.800

      8 Sym. Ops., with inversion, found



   Cartesian axes

     site n.     atom                  positions (alat units)
         1        O      tau(   1) = (   0.0000000   0.0000000   0.0000000  )

     number of k points=     1  Methfessel-Paxton smearing, width (Ry)=  0.0100
                       cart. coord. in units 2pi/alat
        k(    1) = (   0.0000000   0.0000000   0.0000000), wk =   1.0000000

     Dense  grid:   535233 G-vectors     FFT dimensions: (  96, 108, 108)

     Smooth grid:   177971 G-vectors     FFT dimensions: (  72,  72,  75)

     Estimated max dynamical RAM per process >      22.49 MB

     Estimated total dynamical RAM >       1.94 GB
     Generating pointlists ...
     new r_m :   0.4125 (alat units)  5.4566 (a.u.) for type    1

     Initial potential from superposition of free atoms

     starting charge       6.0000, renormalised to       6.0000

     negative rho (up, down):  5.962E-05 6.624E-06
     Starting wfcs are    4 randomized atomic wfcs +    3 random wfcs

     total cpu time spent up to now is       15.6 secs

     Self-consistent Calculation

     iteration #  1     ecut=    60.00 Ry     beta= 0.70
     Davidson diagonalization with overlap
     ethr =  1.00E-02,  avg # of iterations =  6.0

     negative rho (up, down):  3.003E-05 9.578E-08

     total cpu time spent up to now is       17.0 secs

     total energy              =     -31.78778558 Ry
     estimated scf accuracy    <       0.11434414 Ry

     total magnetization       =     2.00 Bohr mag/cell
     absolute magnetization    =     2.04 Bohr mag/cell

     iteration #  2     ecut=    60.00 Ry     beta= 0.70
     Davidson diagonalization with overlap
     ethr =  1.91E-03,  avg # of iterations =  1.5

     negative rho (up, down):  1.978E-04 1.690E-05

     total cpu time spent up to now is       18.3 secs

     total energy              =     -31.81697203 Ry
     estimated scf accuracy    <       0.01622650 Ry

     total magnetization       =     2.00 Bohr mag/cell
     absolute magnetization    =     2.01 Bohr mag/cell

     iteration #  3     ecut=    60.00 Ry     beta= 0.70
     Davidson diagonalization with overlap
     ethr =  2.70E-04,  avg # of iterations =  2.0

     negative rho (up, down):  1.377E-04 7.406E-05

     total cpu time spent up to now is       18.4 secs

     total energy              =     -31.81368489 Ry
     estimated scf accuracy    <       0.01856206 Ry

     total magnetization       =     2.00 Bohr mag/cell
     absolute magnetization    =     2.01 Bohr mag/cell

     iteration #  4     ecut=    60.00 Ry     beta= 0.70
     Davidson diagonalization with overlap
     ethr =  2.70E-04,  avg # of iterations =  1.0

     negative rho (up, down):  9.742E-05 1.337E-05

     total cpu time spent up to now is       18.5 secs

     total energy              =     -31.81823660 Ry
     estimated scf accuracy    <       0.00294767 Ry

     total magnetization       =     2.00 Bohr mag/cell
     absolute magnetization    =     2.00 Bohr mag/cell

     iteration #  5     ecut=    60.00 Ry     beta= 0.70
     Davidson diagonalization with overlap
     ethr =  4.91E-05,  avg # of iterations =  9.0

     negative rho (up, down):  9.806E-05 5.158E-05

     total cpu time spent up to now is       18.6 secs

     total energy              =     -31.81770867 Ry
     estimated scf accuracy    <       0.01030857 Ry

     total magnetization       =     2.00 Bohr mag/cell
     absolute magnetization    =     2.00 Bohr mag/cell

     iteration #  6     ecut=    60.00 Ry     beta= 0.70
     Davidson diagonalization with overlap
     ethr =  4.91E-05,  avg # of iterations =  1.0

     negative rho (up, down):  9.202E-05 3.156E-05

     total cpu time spent up to now is       18.6 secs

     total energy              =     -31.81799874 Ry
     estimated scf accuracy    <       0.00175254 Ry

     total magnetization       =     2.00 Bohr mag/cell
     absolute magnetization    =     2.00 Bohr mag/cell

     iteration #  7     ecut=    60.00 Ry     beta= 0.70
     Davidson diagonalization with overlap
     ethr =  2.92E-05,  avg # of iterations =  1.0

     negative rho (up, down):  8.925E-05 5.720E-06

     total cpu time spent up to now is       18.7 secs

     total energy              =     -31.81827871 Ry
     estimated scf accuracy    <       0.00011772 Ry

     total magnetization       =     2.00 Bohr mag/cell
     absolute magnetization    =     2.00 Bohr mag/cell

     iteration #  8     ecut=    60.00 Ry     beta= 0.70
     Davidson diagonalization with overlap
     ethr =  1.96E-06,  avg # of iterations = 10.0

     negative rho (up, down):  8.915E-05 8.343E-06

     total cpu time spent up to now is       18.8 secs

     total energy              =     -31.81829026 Ry
     estimated scf accuracy    <       0.00038202 Ry

     total magnetization       =     2.00 Bohr mag/cell
     absolute magnetization    =     2.00 Bohr mag/cell

     iteration #  9     ecut=    60.00 Ry     beta= 0.70
     Davidson diagonalization with overlap
     ethr =  1.96E-06,  avg # of iterations =  1.0

     negative rho (up, down):  8.921E-05 4.278E-06

     total cpu time spent up to now is       18.9 secs

     total energy              =     -31.81834544 Ry
     estimated scf accuracy    <       0.00001083 Ry

     total magnetization       =     2.00 Bohr mag/cell
     absolute magnetization    =     2.00 Bohr mag/cell

     iteration # 10     ecut=    60.00 Ry     beta= 0.70
     Davidson diagonalization with overlap
     ethr =  1.80E-07,  avg # of iterations =  1.0

     negative rho (up, down):  8.921E-05 4.097E-06

     total cpu time spent up to now is       19.0 secs

     total energy              =     -31.81834646 Ry
     estimated scf accuracy    <       0.00000009 Ry

     total magnetization       =     2.00 Bohr mag/cell
     absolute magnetization    =     2.00 Bohr mag/cell

     iteration # 11     ecut=    60.00 Ry     beta= 0.70
     Davidson diagonalization with overlap
     ethr =  1.50E-09,  avg # of iterations =  2.0

     negative rho (up, down):  8.921E-05 4.091E-06

     total cpu time spent up to now is       19.1 secs

     total energy              =     -31.81834647 Ry
     estimated scf accuracy    <       0.00000022 Ry

     total magnetization       =     2.00 Bohr mag/cell
     absolute magnetization    =     2.00 Bohr mag/cell

     iteration # 12     ecut=    60.00 Ry     beta= 0.70
     Davidson diagonalization with overlap
     ethr =  1.50E-09,  avg # of iterations =  1.0

     negative rho (up, down):  8.920E-05 4.065E-06
 
     Magnetic moment per site  (integrated on atomic sphere of radius R)
     atom   1 (R=0.413)  charge=  5.9991  magn=  2.0001

     total cpu time spent up to now is       19.2 secs

     End of self-consistent calculation

 ------ SPIN UP ------------


          k = 0.0000 0.0000 0.0000 ( 22259 PWs)   bands (ev):

   -24.8038  -9.9791  -9.9777  -9.9745  -0.5368   1.7925   1.9076

 ------ SPIN DOWN ----------


          k = 0.0000 0.0000 0.0000 ( 22259 PWs)   bands (ev):

   -21.4983  -6.8072  -6.8069  -6.8068  -0.4398   1.9200   1.9793

     the Fermi energy is    -6.8344 ev

!    total energy              =     -31.81834651 Ry
     estimated scf accuracy    <          5.4E-09 Ry
     smearing contrib. (-TS)   =      -0.00373357 Ry
     internal energy E=F+TS    =     -31.81461293 Ry

     The total energy is F=E-TS. E is the sum of the following terms:
     one-electron contribution =     -38.17029180 Ry
     hartree contribution      =      20.32078256 Ry
     xc contribution           =      -6.78033223 Ry
     ewald contribution        =      -7.18477147 Ry

     total magnetization       =     2.00 Bohr mag/cell
     absolute magnetization    =     2.00 Bohr mag/cell

     convergence has been achieved in  12 iterations

     negative rho (up, down):  8.920E-05 4.065E-06

     Forces acting on atoms (cartesian axes, Ry/au):

     atom    1 type  1   force =     0.00000000    0.00000000    0.00000000

     Total force =     0.000000     Total SCF correction =     0.000000


     Computing stress (Cartesian axis) and pressure


     negative rho (up, down):  8.920E-05 4.065E-06
          total   stress  (Ry/bohr**3)                   (kbar)     P=       -0.01
  -0.00000002   0.00000000   0.00000000           -0.00        0.00        0.00
   0.00000000  -0.00000010   0.00000000            0.00       -0.02        0.00
   0.00000000   0.00000000  -0.00000017            0.00        0.00       -0.02


     BFGS Geometry Optimization
     Energy error            =      0.0E+00 Ry
     Gradient error          =      0.0E+00 Ry/Bohr

     bfgs converged in   1 scf cycles and   0 bfgs steps
     (criteria: energy <  1.0E-04 Ry, force <  1.0E-03 Ry/Bohr)

     End of BFGS Geometry Optimization

     Final energy             =     -31.8183465085 Ry
Begin final coordinates

ATOMIC_POSITIONS (angstrom)
O                0.0000000000        0.0000000000        0.0000000000
End final coordinates



     Writing all to output data dir ./out/oxygen_sys.save/ :
     XML data file, charge density, pseudopotentials, collected wavefunctions
 
     init_run     :      0.26s CPU     13.47s WALL (       1 calls)
     electrons    :      1.56s CPU      3.94s WALL (       1 calls)
     forces       :      0.05s CPU      0.06s WALL (       1 calls)
     stress       :      0.09s CPU      0.49s WALL (       1 calls)

     Called by init_run:
     wfcinit      :      0.00s CPU      7.43s WALL (       1 calls)
     potinit      :      0.04s CPU      1.63s WALL (       1 calls)
     hinit0       :      0.02s CPU      3.33s WALL (       1 calls)

     Called by electrons:
     c_bands      :      0.63s CPU      1.28s WALL (      12 calls)
     sum_band     :      0.34s CPU      1.10s WALL (      12 calls)
     v_of_rho     :      0.35s CPU      0.97s WALL (      13 calls)
     newd         :      0.14s CPU      0.72s WALL (      13 calls)
     mix_rho      :      0.05s CPU      0.59s WALL (      12 calls)

     Called by c_bands:
     init_us_2    :      0.00s CPU      0.00s WALL (      26 calls)
     cegterg      :      0.08s CPU      0.71s WALL (      12 calls)

     Called by *egterg:
     cdiaghg      :      0.01s CPU      5.13s WALL (      49 calls)
     h_psi        :      0.06s CPU      2.96s WALL (      50 calls)
     s_psi        :      0.00s CPU      0.00s WALL (      50 calls)
     g_psi        :      0.00s CPU      0.00s WALL (      37 calls)

     Called by h_psi:
     h_psi:calbec :      0.00s CPU      2.84s WALL (      50 calls)
     vloc_psi     :      0.06s CPU      0.12s WALL (      50 calls)
                                        0.00s GPU  (      50 calls)
     add_vuspsi   :      0.00s CPU      0.00s WALL (      50 calls)

     General routines
     calbec       :      0.01s CPU      2.84s WALL (      79 calls)
     fft          :      0.21s CPU      2.10s WALL (     363 calls)
     ffts         :      0.03s CPU      1.01s WALL (      50 calls)
     fftw         :      0.06s CPU      0.13s WALL (     514 calls)
     interpolate  :      0.03s CPU      1.01s WALL (      26 calls)
 
     Parallel routines
 
     PWSCF        :      2.08s CPU     20.81s WALL

 
   This run was terminated on:  14:50:11   7Jul2025            

=------------------------------------------------------------------------------=
   JOB DONE.
=------------------------------------------------------------------------------=
