
     Program PWSCF v.7.4.1 starts on  7Jul2025 at 14:50:21 

     This program is part of the open-source Quantum ESPRESSO suite
     for quantum simulation of materials; please cite
         "P. Giannozzi et al., J. Phys.:Condens. Matter 21 395502 (2009);
         "P. Giannozzi et al., J. Phys.:Condens. Matter 29 465901 (2017);
         "P. Giannozzi et al., J. Chem. Phys. 152 154105 (2020);
          URL http://www.quantum-espresso.org", 
     in publications or presentations arising from this work. More details at
     http://www.quantum-espresso.org/quote

     Parallel version (MPI & OpenMP), running on     100 processor cores
     Number of MPI processes:               100
     Threads/MPI process:                     1

     MPI processes distributed on     1 nodes
     3054710 MiB available memory on the printing compute node when the environment starts
 
     Waiting for input...
     Reading input from standard input

     Current dimensions of program PWSCF are:
     Max number of different atomic species (ntypx) = 10
     Max number of k-points (npk) =  40000
     Max angular momentum in pseudopotentials (lmaxx) =  4
     Message from routine setup:
     using ibrav=0 with symmetry is DISCOURAGED, use correct ibrav instead
 
     K-points division:     npool     =       2
     R & G space division:  proc/nbgrp/npool/nimage =      50
     Subspace diagonalization in iterative solution of the eigenvalue problem:
     a serial algorithm will be used

 
     Parallelization info
     --------------------
     sticks:   dense  smooth     PW     G-vecs:    dense   smooth      PW
     Min         149      71     17                10703     3557     441
     Max         150      72     18                10707     3564     448
     Sum        7455    3569    891               535233   177971   22259
 
     Using Slab Decomposition
 


     bravais-lattice index     =            0
     lattice parameter (alat)  =      13.2281  a.u.
     unit-cell volume          =    2834.3005 (a.u.)^3
     number of atoms/cell      =            2
     number of atomic types    =            1
     number of electrons       =        12.00
     number of Kohn-Sham states=           10
     kinetic-energy cutoff     =      60.0000  Ry
     charge density cutoff     =     500.0000  Ry
     scf convergence threshold =      1.0E-08
     mixing beta               =       0.7000
     number of iterations used =            8  plain     mixing
     energy convergence thresh.=      1.0E-04
     force convergence thresh. =      1.0E-03
     Exchange-correlation= SLA  PW   PSX  PSC
                           (   1   4  10   8   0   0   0)
     nstep                     =           50


     celldm(1)=  13.228083  celldm(2)=   0.000000  celldm(3)=   0.000000
     celldm(4)=   0.000000  celldm(5)=   0.000000  celldm(6)=   0.000000

     crystal axes: (cart. coord. in units of alat)
               a(1) = (   1.000000   0.000000   0.000000 )  
               a(2) = (   0.000000   1.071429   0.000000 )  
               a(3) = (   0.000000   0.000000   1.142857 )  

     reciprocal axes: (cart. coord. in units 2 pi/alat)
               b(1) = (  1.000000  0.000000  0.000000 )  
               b(2) = (  0.000000  0.933333  0.000000 )  
               b(3) = (  0.000000  0.000000  0.875000 )  


     PseudoPot. # 1 for O  read from file:
     /home/m0049/m004905/PSPOT/o_pbesol_v1.2.uspp.F.UPF
     MD5 check sum: 501638753501ef6325af9037351f7734
     Pseudo is Ultrasoft + core correction, Zval =  6.0
     Generated by new atomic code, or converted to UPF format
     Using radial grid of  737 points,  5 beta functions with: 
                l(1) =   0
                l(2) =   0
                l(3) =   1
                l(4) =   1
                l(5) =   2
     Q(r) pseudized with  8 coefficients,  rinner =    0.900   0.900   0.900
                                                       0.900   0.900

     atomic species   valence    mass     pseudopotential
     O                 6.00    15.99900     O ( 1.00)

     Starting magnetic structure 
     atomic species   magnetization
     O               0.800

      4 Sym. Ops. (no inversion) found



   Cartesian axes

     site n.     atom                  positions (alat units)
         1        O      tau(   1) = (   0.0000000   0.0000000   0.0000000  )
         2        O      tau(   2) = (   0.0000000   0.0000000   0.1728571  )

     number of k points=     1  Methfessel-Paxton smearing, width (Ry)=  0.0100
                       cart. coord. in units 2pi/alat
        k(    1) = (   0.0000000   0.0000000   0.0000000), wk =   1.0000000

     Dense  grid:   535233 G-vectors     FFT dimensions: (  96, 108, 108)

     Smooth grid:   177971 G-vectors     FFT dimensions: (  72,  72,  75)

     Estimated max dynamical RAM per process >      22.60 MB

     Estimated total dynamical RAM >       1.95 GB
     Generating pointlists ...
     new r_m :   0.0713 (alat units)  0.9432 (a.u.) for type    1

     Initial potential from superposition of free atoms

     starting charge      12.0000, renormalised to      12.0000

     negative rho (up, down):  5.882E-05 6.536E-06
     Starting wfcs are    8 randomized atomic wfcs +    2 random wfcs

     total cpu time spent up to now is        0.8 secs

     Self-consistent Calculation

     iteration #  1     ecut=    60.00 Ry     beta= 0.70
     Davidson diagonalization with overlap
     ethr =  1.00E-02,  avg # of iterations =  6.0

     negative rho (up, down):  1.036E-04 2.072E-05

     total cpu time spent up to now is        1.1 secs

     total energy              =     -64.04414264 Ry
     estimated scf accuracy    <       0.54713844 Ry

     total magnetization       =     2.00 Bohr mag/cell
     absolute magnetization    =     2.25 Bohr mag/cell

     iteration #  2     ecut=    60.00 Ry     beta= 0.70
     Davidson diagonalization with overlap
     ethr =  4.56E-03,  avg # of iterations =  1.0

     negative rho (up, down):  3.133E-04 6.995E-05

     total cpu time spent up to now is        1.2 secs

     total energy              =     -64.15334554 Ry
     estimated scf accuracy    <       0.06094531 Ry

     total magnetization       =     2.00 Bohr mag/cell
     absolute magnetization    =     2.09 Bohr mag/cell

     iteration #  3     ecut=    60.00 Ry     beta= 0.70
     Davidson diagonalization with overlap
     ethr =  5.08E-04,  avg # of iterations =  2.5

     negative rho (up, down):  2.175E-04 7.230E-05

     total cpu time spent up to now is        1.3 secs

     total energy              =     -64.15841669 Ry
     estimated scf accuracy    <       0.00077055 Ry

     total magnetization       =     2.00 Bohr mag/cell
     absolute magnetization    =     2.05 Bohr mag/cell

     iteration #  4     ecut=    60.00 Ry     beta= 0.70
     Davidson diagonalization with overlap
     ethr =  6.42E-06,  avg # of iterations = 11.0

     negative rho (up, down):  2.023E-04 7.936E-05

     total cpu time spent up to now is        1.4 secs

     total energy              =     -64.15881931 Ry
     estimated scf accuracy    <       0.00007220 Ry

     total magnetization       =     2.00 Bohr mag/cell
     absolute magnetization    =     2.05 Bohr mag/cell

     iteration #  5     ecut=    60.00 Ry     beta= 0.70
     Davidson diagonalization with overlap
     ethr =  6.02E-07,  avg # of iterations =  2.0

     negative rho (up, down):  1.981E-04 8.269E-05

     total cpu time spent up to now is        1.5 secs

     total energy              =     -64.15885540 Ry
     estimated scf accuracy    <       0.00001021 Ry

     total magnetization       =     2.00 Bohr mag/cell
     absolute magnetization    =     2.05 Bohr mag/cell

     iteration #  6     ecut=    60.00 Ry     beta= 0.70
     Davidson diagonalization with overlap
     ethr =  8.51E-08,  avg # of iterations =  2.5

     negative rho (up, down):  1.969E-04 8.378E-05

     total cpu time spent up to now is        1.6 secs

     total energy              =     -64.15885929 Ry
     estimated scf accuracy    <       0.00002178 Ry

     total magnetization       =     2.00 Bohr mag/cell
     absolute magnetization    =     2.05 Bohr mag/cell

     iteration #  7     ecut=    60.00 Ry     beta= 0.70
     Davidson diagonalization with overlap
     ethr =  8.51E-08,  avg # of iterations =  2.0

     negative rho (up, down):  1.971E-04 8.339E-05

     total cpu time spent up to now is        1.7 secs

     total energy              =     -64.15886264 Ry
     estimated scf accuracy    <       0.00000025 Ry

     total magnetization       =     2.00 Bohr mag/cell
     absolute magnetization    =     2.05 Bohr mag/cell

     iteration #  8     ecut=    60.00 Ry     beta= 0.70
     Davidson diagonalization with overlap
     ethr =  2.08E-09,  avg # of iterations =  2.0

     negative rho (up, down):  1.970E-04 8.346E-05

     total cpu time spent up to now is        1.8 secs

     total energy              =     -64.15886273 Ry
     estimated scf accuracy    <       0.00000006 Ry

     total magnetization       =     2.00 Bohr mag/cell
     absolute magnetization    =     2.05 Bohr mag/cell

     iteration #  9     ecut=    60.00 Ry     beta= 0.70
     Davidson diagonalization with overlap
     ethr =  4.62E-10,  avg # of iterations =  1.0

     negative rho (up, down):  1.971E-04 8.345E-05
 
     Magnetic moment per site  (integrated on atomic sphere of radius R)
     atom   1 (R=0.071)  charge=  2.9078  magn=  0.5651
     atom   2 (R=0.071)  charge=  2.9111  magn=  0.5654

     total cpu time spent up to now is        1.9 secs

     End of self-consistent calculation

 ------ SPIN UP ------------


          k = 0.0000 0.0000 0.0000 ( 22259 PWs)   bands (ev):

   -32.3983 -19.9452 -13.1587 -13.0831 -13.0829  -6.3171  -6.3168  -0.3146
     1.6466   1.9664

 ------ SPIN DOWN ----------


          k = 0.0000 0.0000 0.0000 ( 22259 PWs)   bands (ev):

   -31.1474 -18.0994 -12.0518 -11.2078 -11.2075  -3.9946  -3.9938  -0.1968
     1.9078   2.0108

     the Fermi energy is    -4.7509 ev

!    total energy              =     -64.15886273 Ry
     estimated scf accuracy    <          4.6E-09 Ry
     smearing contrib. (-TS)   =       0.00000000 Ry
     internal energy E=F+TS    =     -64.15886273 Ry

     The total energy is F=E-TS. E is the sum of the following terms:
     one-electron contribution =    -110.13239052 Ry
     hartree contribution      =      57.02468127 Ry
     xc contribution           =     -14.00592275 Ry
     ewald contribution        =       2.95476927 Ry

     total magnetization       =     2.00 Bohr mag/cell
     absolute magnetization    =     2.05 Bohr mag/cell

     convergence has been achieved in   9 iterations

     negative rho (up, down):  1.971E-04 8.345E-05

     Forces acting on atoms (cartesian axes, Ry/au):

     atom    1 type  1   force =     0.00000000    0.00000000   -0.02028386
     atom    2 type  1   force =     0.00000000    0.00000000    0.02028386

     Total force =     0.028686     Total SCF correction =     0.000269


     Computing stress (Cartesian axis) and pressure


     negative rho (up, down):  1.971E-04 8.345E-05
          total   stress  (Ry/bohr**3)                   (kbar)     P=        0.74
  -0.00000031   0.00000000   0.00000000           -0.05        0.00        0.00
   0.00000000  -0.00000043   0.00000000            0.00       -0.06        0.00
   0.00000000   0.00000000   0.00001575            0.00        0.00        2.32


     BFGS Geometry Optimization
     Energy error            =      8.2E-04 Ry
     Gradient error          =      2.0E-02 Ry/Bohr

     number of scf cycles    =   1
     number of bfgs steps    =   0

     energy             new  =     -64.1588627296 Ry

     new trust radius        =       0.0202838559 bohr
     new conv_thr            =       0.0000000100 Ry


ATOMIC_POSITIONS (angstrom)
O                0.0000000000        0.0000000000       -0.0107337543
O                0.0000000000        0.0000000000        1.2207337543



     Writing config-only to output data dir ./out/oxygen_sys.save/ :
     XML data file
     NEW-OLD atomic charge density approx. for the potential

     negative rho (up, down):  1.344E-04 1.840E-04
     Generating pointlists ...

     total cpu time spent up to now is        2.9 secs

     Self-consistent Calculation

     iteration #  1     ecut=    60.00 Ry     beta= 0.70
     Davidson diagonalization with overlap
     ethr =  1.00E-06,  avg # of iterations =  6.0

     negative rho (up, down):  1.907E-04 1.195E-04

     total cpu time spent up to now is        3.0 secs

     total energy              =     -64.15830995 Ry
     estimated scf accuracy    <       0.00042452 Ry

     total magnetization       =     2.00 Bohr mag/cell
     absolute magnetization    =     2.05 Bohr mag/cell

     iteration #  2     ecut=    60.00 Ry     beta= 0.70
     Davidson diagonalization with overlap
     ethr =  3.54E-06,  avg # of iterations =  2.5

     negative rho (up, down):  1.869E-04 8.924E-05

     total cpu time spent up to now is        3.1 secs

     total energy              =     -64.15841873 Ry
     estimated scf accuracy    <       0.00006065 Ry

     total magnetization       =     2.00 Bohr mag/cell
     absolute magnetization    =     2.05 Bohr mag/cell

     iteration #  3     ecut=    60.00 Ry     beta= 0.70
     Davidson diagonalization with overlap
     ethr =  5.05E-07,  avg # of iterations =  2.0

     negative rho (up, down):  1.902E-04 7.875E-05

     total cpu time spent up to now is        3.2 secs

     total energy              =     -64.15842921 Ry
     estimated scf accuracy    <       0.00000229 Ry

     total magnetization       =     2.00 Bohr mag/cell
     absolute magnetization    =     2.05 Bohr mag/cell

     iteration #  4     ecut=    60.00 Ry     beta= 0.70
     Davidson diagonalization with overlap
     ethr =  1.91E-08,  avg # of iterations =  2.0

     negative rho (up, down):  1.904E-04 7.771E-05

     total cpu time spent up to now is        3.3 secs

     total energy              =     -64.15842916 Ry
     estimated scf accuracy    <       0.00000384 Ry

     total magnetization       =     2.00 Bohr mag/cell
     absolute magnetization    =     2.05 Bohr mag/cell

     iteration #  5     ecut=    60.00 Ry     beta= 0.70
     Davidson diagonalization with overlap
     ethr =  1.91E-08,  avg # of iterations =  2.0

     negative rho (up, down):  1.905E-04 7.740E-05

     total cpu time spent up to now is        3.4 secs

     total energy              =     -64.15842973 Ry
     estimated scf accuracy    <       0.00000009 Ry

     total magnetization       =     2.00 Bohr mag/cell
     absolute magnetization    =     2.05 Bohr mag/cell

     iteration #  6     ecut=    60.00 Ry     beta= 0.70
     Davidson diagonalization with overlap
     ethr =  7.27E-10,  avg # of iterations =  2.0

     negative rho (up, down):  1.904E-04 7.743E-05

     total cpu time spent up to now is        3.5 secs

     total energy              =     -64.15842975 Ry
     estimated scf accuracy    <       0.00000002 Ry

     total magnetization       =     2.00 Bohr mag/cell
     absolute magnetization    =     2.05 Bohr mag/cell

     iteration #  7     ecut=    60.00 Ry     beta= 0.70
     Davidson diagonalization with overlap
     ethr =  1.38E-10,  avg # of iterations =  2.0

     negative rho (up, down):  1.904E-04 7.744E-05
 
     Magnetic moment per site  (integrated on atomic sphere of radius R)
     atom   1 (R=0.071)  charge=  2.8955  magn=  0.5659
     atom   2 (R=0.071)  charge=  2.8976  magn=  0.5661

     total cpu time spent up to now is        3.5 secs

     End of self-consistent calculation

 ------ SPIN UP ------------


          k = 0.0000 0.0000 0.0000 ( 22259 PWs)   bands (ev):

   -31.9562 -20.1157 -13.1028 -12.8949 -12.8946  -6.4908  -6.4904  -0.3135
     1.5608   1.9678

 ------ SPIN DOWN ----------


          k = 0.0000 0.0000 0.0000 ( 22259 PWs)   bands (ev):

   -30.6891 -18.2692 -12.0107 -11.0172 -11.0169  -4.1713  -4.1705  -0.2022
     1.8603   2.0073

     the Fermi energy is    -5.8033 ev

!    total energy              =     -64.15842976 Ry
     estimated scf accuracy    <          2.9E-10 Ry
     smearing contrib. (-TS)   =       0.00000000 Ry
     internal energy E=F+TS    =     -64.15842976 Ry

     The total energy is F=E-TS. E is the sum of the following terms:
     one-electron contribution =    -109.15393502 Ry
     hartree contribution      =      56.54956183 Ry
     xc contribution           =     -13.96764869 Ry
     ewald contribution        =       2.41359212 Ry

     total magnetization       =     2.00 Bohr mag/cell
     absolute magnetization    =     2.05 Bohr mag/cell

     convergence has been achieved in   7 iterations

     negative rho (up, down):  1.904E-04 7.744E-05

     Forces acting on atoms (cartesian axes, Ry/au):

     atom    1 type  1   force =     0.00000000    0.00000000    0.04002871
     atom    2 type  1   force =     0.00000000    0.00000000   -0.04002871

     Total force =     0.056609     Total SCF correction =     0.000033


     Computing stress (Cartesian axis) and pressure


     negative rho (up, down):  1.904E-04 7.744E-05
          total   stress  (Ry/bohr**3)                   (kbar)     P=       -1.68
  -0.00000032   0.00000000   0.00000000           -0.05        0.00        0.00
   0.00000000  -0.00000044   0.00000000            0.00       -0.07        0.00
   0.00000000   0.00000000  -0.00003348            0.00        0.00       -4.92

     Energy error            =      4.3E-04 Ry
     Gradient error          =      4.0E-02 Ry/Bohr

     number of scf cycles    =   2
     number of bfgs steps    =   1

     energy             old  =     -64.1588627296 Ry
     energy             new  =     -64.1584297552 Ry

     CASE: energy            _new > energy            _old

     new trust radius        =       0.0066453193 bohr
     new conv_thr            =       0.0000000100 Ry


ATOMIC_POSITIONS (angstrom)
O                0.0000000000        0.0000000000       -0.0035165515
O                0.0000000000        0.0000000000        1.2135165515



     Writing config-only to output data dir ./out/oxygen_sys.save/ :
     XML data file
     NEW-OLD atomic charge density approx. for the potential

     negative rho (up, down):  1.409E-04 1.042E-04
     Generating pointlists ...

     total cpu time spent up to now is        4.8 secs

     Self-consistent Calculation

     iteration #  1     ecut=    60.00 Ry     beta= 0.70
     Davidson diagonalization with overlap
     ethr =  1.00E-06,  avg # of iterations =  5.5

     negative rho (up, down):  2.086E-04 1.144E-04

     total cpu time spent up to now is        4.9 secs

     total energy              =     -64.15893988 Ry
     estimated scf accuracy    <       0.00018802 Ry

     total magnetization       =     2.00 Bohr mag/cell
     absolute magnetization    =     2.05 Bohr mag/cell

     iteration #  2     ecut=    60.00 Ry     beta= 0.70
     Davidson diagonalization with overlap
     ethr =  1.57E-06,  avg # of iterations =  3.0

     negative rho (up, down):  1.953E-04 8.706E-05

     total cpu time spent up to now is        5.0 secs

     total energy              =     -64.15898777 Ry
     estimated scf accuracy    <       0.00002601 Ry

     total magnetization       =     2.00 Bohr mag/cell
     absolute magnetization    =     2.05 Bohr mag/cell

     iteration #  3     ecut=    60.00 Ry     beta= 0.70
     Davidson diagonalization with overlap
     ethr =  2.17E-07,  avg # of iterations =  2.0

     negative rho (up, down):  1.945E-04 8.169E-05

     total cpu time spent up to now is        5.1 secs

     total energy              =     -64.15899248 Ry
     estimated scf accuracy    <       0.00000086 Ry

     total magnetization       =     2.00 Bohr mag/cell
     absolute magnetization    =     2.05 Bohr mag/cell

     iteration #  4     ecut=    60.00 Ry     beta= 0.70
     Davidson diagonalization with overlap
     ethr =  7.19E-09,  avg # of iterations =  2.0

     negative rho (up, down):  1.946E-04 8.107E-05

     total cpu time spent up to now is        5.2 secs

     total energy              =     -64.15899259 Ry
     estimated scf accuracy    <       0.00000006 Ry

     total magnetization       =     2.00 Bohr mag/cell
     absolute magnetization    =     2.05 Bohr mag/cell

     iteration #  5     ecut=    60.00 Ry     beta= 0.70
     Davidson diagonalization with overlap
     ethr =  4.91E-10,  avg # of iterations =  2.0

     negative rho (up, down):  1.947E-04 8.103E-05

     total cpu time spent up to now is        5.3 secs

     total energy              =     -64.15899260 Ry
     estimated scf accuracy    <       0.00000006 Ry

     total magnetization       =     2.00 Bohr mag/cell
     absolute magnetization    =     2.05 Bohr mag/cell

     iteration #  6     ecut=    60.00 Ry     beta= 0.70
     Davidson diagonalization with overlap
     ethr =  4.66E-10,  avg # of iterations =  1.0

     negative rho (up, down):  1.948E-04 8.107E-05
 
     Magnetic moment per site  (integrated on atomic sphere of radius R)
     atom   1 (R=0.071)  charge=  2.9035  magn=  0.5654
     atom   2 (R=0.071)  charge=  2.9069  magn=  0.5656

     total cpu time spent up to now is        5.4 secs

     End of self-consistent calculation

 ------ SPIN UP ------------


          k = 0.0000 0.0000 0.0000 ( 22259 PWs)   bands (ev):

   -32.2507 -20.0011 -13.1401 -13.0199 -13.0197  -6.3747  -6.3743  -0.3141
     1.6232   1.9666

 ------ SPIN DOWN ----------


          k = 0.0000 0.0000 0.0000 ( 22259 PWs)   bands (ev):

   -30.9945 -18.1549 -12.0379 -11.1438 -11.1435  -4.0531  -4.0523  -0.1986
     1.8940   2.0092

     the Fermi energy is    -4.7198 ev

!    total energy              =     -64.15899261 Ry
     estimated scf accuracy    <          2.7E-09 Ry
     smearing contrib. (-TS)   =       0.00000000 Ry
     internal energy E=F+TS    =     -64.15899261 Ry

     The total energy is F=E-TS. E is the sum of the following terms:
     one-electron contribution =    -109.80837135 Ry
     hartree contribution      =      56.86717265 Ry
     xc contribution           =     -13.99311404 Ry
     ewald contribution        =       2.77532013 Ry

     total magnetization       =     2.00 Bohr mag/cell
     absolute magnetization    =     2.05 Bohr mag/cell

     convergence has been achieved in   6 iterations

     negative rho (up, down):  1.948E-04 8.107E-05

     Forces acting on atoms (cartesian axes, Ry/au):

     atom    1 type  1   force =     0.00000000    0.00000000    0.00056886
     atom    2 type  1   force =     0.00000000    0.00000000   -0.00056886

     Total force =     0.000804     Total SCF correction =     0.000133
     SCF correction compared to forces is large: reduce conv_thr to get better values


     Computing stress (Cartesian axis) and pressure


     negative rho (up, down):  1.948E-04 8.107E-05
          total   stress  (Ry/bohr**3)                   (kbar)     P=       -0.11
  -0.00000046   0.00000000   0.00000000           -0.07        0.00        0.00
   0.00000000  -0.00000058   0.00000000            0.00       -0.09        0.00
   0.00000000   0.00000000  -0.00000115            0.00        0.00       -0.17

     Energy error            =      1.3E-04 Ry
     Gradient error          =      5.7E-04 Ry/Bohr

     number of scf cycles    =   3
     number of bfgs steps    =   1

     energy             old  =     -64.1588627296 Ry
     energy             new  =     -64.1589926089 Ry

     CASE: energy            _new < energy            _old

     new trust radius        =       0.0001812842 bohr
     new conv_thr            =            1.0E-10 Ry


ATOMIC_POSITIONS (angstrom)
O                0.0000000000        0.0000000000       -0.0034206201
O                0.0000000000        0.0000000000        1.2134206201



     Writing config-only to output data dir ./out/oxygen_sys.save/ :
     XML data file
     NEW-OLD atomic charge density approx. for the potential

     negative rho (up, down):  1.202E-04 1.154E-04
     Generating pointlists ...

     total cpu time spent up to now is        7.9 secs

     Self-consistent Calculation

     iteration #  1     ecut=    60.00 Ry     beta= 0.70
     Davidson diagonalization with overlap
     ethr =  1.00E-06,  avg # of iterations =  2.0

     Threshold (ethr) on eigenvalues was too large:
     Diagonalizing with lowered threshold

     Davidson diagonalization with overlap
     ethr =  4.27E-10,  avg # of iterations =  2.0

     negative rho (up, down):  1.802E-04 8.550E-05

     total cpu time spent up to now is        8.1 secs

     total energy              =     -64.15899271 Ry
     estimated scf accuracy    <       0.00000005 Ry

     total magnetization       =     2.00 Bohr mag/cell
     absolute magnetization    =     2.05 Bohr mag/cell

     iteration #  2     ecut=    60.00 Ry     beta= 0.70
     Davidson diagonalization with overlap
     ethr =  4.38E-10,  avg # of iterations =  2.0

     negative rho (up, down):  1.889E-04 8.321E-05

     total cpu time spent up to now is        8.2 secs

     total energy              =     -64.15899271 Ry
     estimated scf accuracy    <          8.0E-09 Ry

     total magnetization       =     2.00 Bohr mag/cell
     absolute magnetization    =     2.05 Bohr mag/cell

     iteration #  3     ecut=    60.00 Ry     beta= 0.70
     Davidson diagonalization with overlap
     ethr =  6.68E-11,  avg # of iterations =  2.0

     negative rho (up, down):  1.923E-04 8.223E-05

     total cpu time spent up to now is        8.2 secs

     total energy              =     -64.15899271 Ry
     estimated scf accuracy    <          9.7E-10 Ry

     total magnetization       =     2.00 Bohr mag/cell
     absolute magnetization    =     2.05 Bohr mag/cell

     iteration #  4     ecut=    60.00 Ry     beta= 0.70
     Davidson diagonalization with overlap
     ethr =  8.04E-12,  avg # of iterations =  2.0

     negative rho (up, down):  1.946E-04 8.111E-05

     total cpu time spent up to now is        8.3 secs

     total energy              =     -64.15899271 Ry
     estimated scf accuracy    <          1.3E-09 Ry

     total magnetization       =     2.00 Bohr mag/cell
     absolute magnetization    =     2.05 Bohr mag/cell

     iteration #  5     ecut=    60.00 Ry     beta= 0.70
     Davidson diagonalization with overlap
     ethr =  8.04E-12,  avg # of iterations =  2.0

     negative rho (up, down):  1.948E-04 8.114E-05
 
     Magnetic moment per site  (integrated on atomic sphere of radius R)
     atom   1 (R=0.071)  charge=  2.9036  magn=  0.5654
     atom   2 (R=0.071)  charge=  2.9070  magn=  0.5656

     total cpu time spent up to now is        8.4 secs

     End of self-consistent calculation

 ------ SPIN UP ------------


          k = 0.0000 0.0000 0.0000 ( 22259 PWs)   bands (ev):

   -32.2551 -19.9997 -13.1408 -13.0218 -13.0216  -6.3734  -6.3730  -0.3141
     1.6238   1.9665

 ------ SPIN DOWN ----------


          k = 0.0000 0.0000 0.0000 ( 22259 PWs)   bands (ev):

   -30.9989 -18.1537 -12.0386 -11.1458 -11.1454  -4.0518  -4.0510  -0.1986
     1.8944   2.0093

     the Fermi energy is    -4.7207 ev

!    total energy              =     -64.15899271 Ry
     estimated scf accuracy    <          7.1E-12 Ry
     smearing contrib. (-TS)   =       0.00000000 Ry
     internal energy E=F+TS    =     -64.15899271 Ry

     The total energy is F=E-TS. E is the sum of the following terms:
     one-electron contribution =    -109.81739746 Ry
     hartree contribution      =      56.87172720 Ry
     xc contribution           =     -13.99350981 Ry
     ewald contribution        =       2.78018736 Ry

     total magnetization       =     2.00 Bohr mag/cell
     absolute magnetization    =     2.05 Bohr mag/cell

     convergence has been achieved in   5 iterations

     negative rho (up, down):  1.948E-04 8.114E-05

     Forces acting on atoms (cartesian axes, Ry/au):

     atom    1 type  1   force =     0.00000000    0.00000000   -0.00001206
     atom    2 type  1   force =     0.00000000    0.00000000    0.00001206

     Total force =     0.000017     Total SCF correction =     0.000002
     SCF correction compared to forces is large: reduce conv_thr to get better values


     Computing stress (Cartesian axis) and pressure


     negative rho (up, down):  1.948E-04 8.114E-05
          total   stress  (Ry/bohr**3)                   (kbar)     P=       -0.07
  -0.00000035   0.00000000   0.00000000           -0.05        0.00        0.00
   0.00000000  -0.00000047   0.00000000            0.00       -0.07        0.00
   0.00000000   0.00000000  -0.00000062            0.00        0.00       -0.09

     Energy error            =      9.8E-08 Ry
     Gradient error          =      1.2E-05 Ry/Bohr

     bfgs converged in   4 scf cycles and   2 bfgs steps
     (criteria: energy <  1.0E-04 Ry, force <  1.0E-03 Ry/Bohr)

     End of BFGS Geometry Optimization

     Final energy             =     -64.1589927070 Ry

     File ./out/oxygen_sys.bfgs deleted, as requested
Begin final coordinates

ATOMIC_POSITIONS (angstrom)
O                0.0000000000        0.0000000000       -0.0034206201
O                0.0000000000        0.0000000000        1.2134206201
End final coordinates



     Writing all to output data dir ./out/oxygen_sys.save/ :
     XML data file, charge density, pseudopotentials, collected wavefunctions
 
     init_run     :      0.29s CPU      0.68s WALL (       1 calls)
     electrons    :      2.50s CPU      6.15s WALL (       4 calls)
     update_pot   :      0.10s CPU      0.10s WALL (       3 calls)
     forces       :      0.21s CPU      0.22s WALL (       4 calls)
     stress       :      0.38s CPU      0.40s WALL (       4 calls)

     Called by init_run:
     wfcinit      :      0.01s CPU      0.02s WALL (       1 calls)
     potinit      :      0.04s CPU      0.05s WALL (       1 calls)
     hinit0       :      0.03s CPU      0.04s WALL (       1 calls)

     Called by electrons:
     c_bands      :      0.28s CPU      0.40s WALL (      28 calls)
     sum_band     :      0.81s CPU      0.94s WALL (      28 calls)
     v_of_rho     :      0.86s CPU      0.90s WALL (      31 calls)
     newd         :      0.39s CPU      0.75s WALL (      31 calls)
     mix_rho      :      0.09s CPU      0.10s WALL (      28 calls)

     Called by c_bands:
     init_us_2    :      0.01s CPU      0.01s WALL (      61 calls)
     cegterg      :      0.25s CPU      0.36s WALL (      28 calls)

     Called by *egterg:
     cdiaghg      :      0.02s CPU      0.11s WALL (     104 calls)
     h_psi        :      0.22s CPU      0.23s WALL (     109 calls)
     s_psi        :      0.00s CPU      0.00s WALL (     109 calls)
     g_psi        :      0.00s CPU      0.00s WALL (      80 calls)

     Called by h_psi:
     h_psi:calbec :      0.01s CPU      0.01s WALL (     109 calls)
     vloc_psi     :      0.20s CPU      0.22s WALL (     109 calls)
                                        0.00s GPU  (     109 calls)
     add_vuspsi   :      0.00s CPU      0.00s WALL (     109 calls)

     General routines
     calbec       :      0.02s CPU      0.02s WALL (     205 calls)
     fft          :      0.57s CPU      0.59s WALL (     932 calls)
     ffts         :      0.05s CPU      0.05s WALL (     118 calls)
     fftw         :      0.22s CPU      0.24s WALL (    1818 calls)
     interpolate  :      0.06s CPU      0.07s WALL (      62 calls)
 
     Parallel routines
 
     PWSCF        :      4.45s CPU     11.58s WALL

 
   This run was terminated on:  14:50:33   7Jul2025            

=------------------------------------------------------------------------------=
   JOB DONE.
=------------------------------------------------------------------------------=
