
     Program PWSCF v.7.1 starts on 10Jun2026 at 17:43: 9 

     This program is part of the open-source Quantum ESPRESSO suite
     for quantum simulation of materials; please cite
         "P. Giannozzi et al., J. Phys.:Condens. Matter 21 395502 (2009);
         "P. Giannozzi et al., J. Phys.:Condens. Matter 29 465901 (2017);
         "P. Giannozzi et al., J. Chem. Phys. 152 154105 (2020);
          URL http://www.quantum-espresso.org", 
     in publications or presentations arising from this work. More details at
     http://www.quantum-espresso.org/quote

     Parallel version (MPI & OpenMP), running on       7 processor cores
     Number of MPI processes:                 7
     Threads/MPI process:                     1

     MPI processes distributed on     7 nodes
     225333 MiB available memory on the printing compute node when the environment starts
 
     Waiting for input...
     Reading input from standard input

     Current dimensions of program PWSCF are:
     Max number of different atomic species (ntypx) = 10
     Max number of k-points (npk) =  40000
     Max angular momentum in pseudopotentials (lmaxx) =  4
     Message from routine setup:
     using ibrav=0 with symmetry is DISCOURAGED, use correct ibrav instead
 
     K-points division:     npool     =       7
     Subspace diagonalization in iterative solution of the eigenvalue problem:
     a serial algorithm will be used

 
     G-vector sticks info
     --------------------
     sticks:   dense  smooth     PW     G-vecs:    dense   smooth      PW
     Sum        1069     433    151                45563    11561    2297
 
     Using Slab Decomposition
 


     bravais-lattice index     =            0
     lattice parameter (alat)  =       4.7040  a.u.
     unit-cell volume          =     145.4992 (a.u.)^3
     number of atoms/cell      =            2
     number of atomic types    =            1
     number of electrons       =        24.00
     number of Kohn-Sham states=           16
     kinetic-energy cutoff     =      70.0000  Ry
     charge density cutoff     =     700.0000  Ry
     scf convergence threshold =      1.0E-08
     mixing beta               =       0.7000
     number of iterations used =            8  plain     mixing
     energy convergence thresh.=      1.0E-04
     force convergence thresh. =      1.0E-03
     press convergence thresh. =      5.0E-01
     Exchange-correlation=  SLA  PW   PBX  PBC
                           (   1   4   3   4   0   0   0)
     nstep                     =           50


     celldm(1)=   4.703973  celldm(2)=   0.000000  celldm(3)=   0.000000
     celldm(4)=   0.000000  celldm(5)=   0.000000  celldm(6)=   0.000000

     crystal axes: (cart. coord. in units of alat)
               a(1) = (   0.500154  -0.865937   0.000000 )  
               a(2) = (   0.500154   0.865937   0.000000 )  
               a(3) = (   0.000000   0.000000   1.613789 )  

     reciprocal axes: (cart. coord. in units 2 pi/alat)
               b(1) = (  0.999693 -0.577409  0.000000 )  
               b(2) = (  0.999693  0.577409  0.000000 )  
               b(3) = (  0.000000  0.000000  0.619660 )  


     PseudoPot. # 1 for Ti read from file:
     /home/k0750/k075000/PSPOT/ti_pbe_v1.4.uspp.F.UPF
     MD5 check sum: 88a00a6731bd790ddea75d31a80cb452
     Pseudo is Ultrasoft + core correction, Zval = 12.0
     Generated by new atomic code, or converted to UPF format
     Using radial grid of  851 points,  6 beta functions with: 
                l(1) =   0
                l(2) =   0
                l(3) =   1
                l(4) =   1
                l(5) =   2
                l(6) =   2
     Q(r) pseudized with  6 coefficients,  rinner =    1.000   1.000   1.000
                                                       1.000   1.000

     atomic species   valence    mass     pseudopotential
        Ti            12.00    47.86700     Ti( 1.00)

      8 Sym. Ops., with inversion, found ( 4 have fractional translation)



   Cartesian axes

     site n.     atom                  positions (alat units)
         1           Ti  tau(   1) = (   0.0000000   0.0000000   0.0000000  )
         2           Ti  tau(   2) = (   0.5001536  -0.2886456   0.8068944  )

     number of k points=   215  Methfessel-Paxton smearing, width (Ry)=  0.0100

     Number of k-points >= 100: set verbosity='high' to print them.

     Dense  grid:    45563 G-vectors     FFT dimensions: (  45,  45,  64)

     Smooth grid:    11561 G-vectors     FFT dimensions: (  27,  27,  48)

     Estimated max dynamical RAM per process >      64.12 MB

     Estimated total dynamical RAM >     382.12 MB

     Check: negative core charge=   -0.000006

     Initial potential from superposition of free atoms

     starting charge      21.9999, renormalised to      24.0000

     negative rho (up, down):  2.611E-03 0.000E+00
     Starting wfcs are   20 randomized atomic wfcs

     total cpu time spent up to now is        2.0 secs

     Self-consistent Calculation

     iteration #  1     ecut=    70.00 Ry     beta= 0.70
     Davidson diagonalization with overlap
     ethr =  1.00E-02,  avg # of iterations =  3.2

     negative rho (up, down):  2.478E-03 0.000E+00

     total cpu time spent up to now is        3.7 secs

     total energy              =    -238.02440722 Ry
     estimated scf accuracy    <       0.71365699 Ry

     iteration #  2     ecut=    70.00 Ry     beta= 0.70
     Davidson diagonalization with overlap
     ethr =  2.97E-03,  avg # of iterations =  2.2

     negative rho (up, down):  1.752E-03 0.000E+00

     total cpu time spent up to now is        5.4 secs

     total energy              =    -238.23567834 Ry
     estimated scf accuracy    <       0.08235900 Ry

     iteration #  3     ecut=    70.00 Ry     beta= 0.70
     Davidson diagonalization with overlap
     ethr =  3.43E-04,  avg # of iterations =  2.0

     negative rho (up, down):  1.415E-03 0.000E+00

     total cpu time spent up to now is        6.8 secs

     total energy              =    -238.24944034 Ry
     estimated scf accuracy    <       0.00042819 Ry

     iteration #  4     ecut=    70.00 Ry     beta= 0.70
     Davidson diagonalization with overlap
     ethr =  1.78E-06,  avg # of iterations =  6.1

     negative rho (up, down):  1.416E-03 0.000E+00

     total cpu time spent up to now is        8.9 secs

     total energy              =    -238.24973333 Ry
     estimated scf accuracy    <       0.00020131 Ry

     iteration #  5     ecut=    70.00 Ry     beta= 0.70
     Davidson diagonalization with overlap
     ethr =  8.39E-07,  avg # of iterations =  2.0

     negative rho (up, down):  1.416E-03 0.000E+00

     total cpu time spent up to now is       10.3 secs

     total energy              =    -238.24977764 Ry
     estimated scf accuracy    <       0.00000017 Ry

     iteration #  6     ecut=    70.00 Ry     beta= 0.70
     Davidson diagonalization with overlap
     ethr =  7.20E-10,  avg # of iterations =  5.7

     negative rho (up, down):  1.414E-03 0.000E+00

     total cpu time spent up to now is       12.3 secs

     total energy              =    -238.24977876 Ry
     estimated scf accuracy    <       0.00000078 Ry

     iteration #  7     ecut=    70.00 Ry     beta= 0.70
     Davidson diagonalization with overlap
     ethr =  7.20E-10,  avg # of iterations =  2.1

     negative rho (up, down):  1.414E-03 0.000E+00

     total cpu time spent up to now is       13.7 secs

     total energy              =    -238.24977873 Ry
     estimated scf accuracy    <       0.00000014 Ry

     iteration #  8     ecut=    70.00 Ry     beta= 0.70
     Davidson diagonalization with overlap
     ethr =  5.73E-10,  avg # of iterations =  2.2

     negative rho (up, down):  1.414E-03 0.000E+00

     total cpu time spent up to now is       15.2 secs

     End of self-consistent calculation

     Number of k-points >= 100: set verbosity='high' to print the bands.

     the Fermi energy is    22.7383 ev

!    total energy              =    -238.24977877 Ry
     estimated scf accuracy    <          1.4E-10 Ry
     smearing contrib. (-TS)   =      -0.00003075 Ry
     internal energy E=F+TS    =    -238.24974802 Ry

     The total energy is F=E-TS. E is the sum of the following terms:
     one-electron contribution =     -38.24318517 Ry
     hartree contribution      =      36.30309998 Ry
     xc contribution           =     -37.06176079 Ry
     ewald contribution        =    -199.24790203 Ry

     convergence has been achieved in   8 iterations


     Computing stress (Cartesian axis) and pressure


     negative rho (up, down):  1.414E-03 0.000E+00
          total   stress  (Ry/bohr**3)                   (kbar)     P=     1150.71
   0.00764397   0.00000000   0.00000000         1124.47        0.00        0.00
   0.00000000   0.00764762   0.00000000            0.00     1125.00        0.00
   0.00000000   0.00000000   0.00817550            0.00        0.00     1202.66


     BFGS Geometry Optimization
     Energy error            =      0.0E+00 Ry
     Gradient error          =      0.0E+00 Ry/Bohr
     Cell gradient error     =      1.2E+03 kbar

     number of scf cycles    =   1
     number of bfgs steps    =   0

     enthalpy           new  =    -238.2497787697 Ry

     new trust radius        =       0.4930766948 bohr
     new conv_thr            =       0.0000000100 Ry

     new unit-cell volume =    248.63147 a.u.^3 (    36.84338 Ang^3 )
     density =      4.31475 g/cm^3

CELL_PARAMETERS (angstrom)
   1.482918638  -2.567635192   0.000000000
   1.482918638   2.567635192   0.000000000
   0.000000000   0.000000000   4.838144695

ATOMIC_POSITIONS (crystal)
Ti            0.0000000000        0.0000000000        0.0000000000    0   0   0
Ti            0.6666666667        0.3333333333        0.5000000000    0   0   0



     Writing config-only to output data dir ./out/Ti_hcp.save/
     NEW-OLD atomic charge density approx. for the potential

     Check: negative core charge=   -0.000010

     negative rho (up, down):  2.914E-03 0.000E+00
     extrapolated charge   33.12556, renormalised to   24.00000

     total cpu time spent up to now is       17.0 secs

     Self-consistent Calculation

     iteration #  1     ecut=    70.00 Ry     beta= 0.70
     Davidson diagonalization with overlap
     c_bands:  1 eigenvalues not converged
     ethr =  1.00E-06,  avg # of iterations = 12.9

     negative rho (up, down):  5.176E-03 0.000E+00

     total cpu time spent up to now is       21.0 secs

     total energy              =    -230.24809885 Ry
     estimated scf accuracy    <       3.50374604 Ry

     iteration #  2     ecut=    70.00 Ry     beta= 0.70
     Davidson diagonalization with overlap
     ethr =  1.00E-02,  avg # of iterations =  4.4

     negative rho (up, down):  8.479E-04 0.000E+00

     total cpu time spent up to now is       23.0 secs

     total energy              =    -239.29521157 Ry
     estimated scf accuracy    <      20.07272125 Ry

     iteration #  3     ecut=    70.00 Ry     beta= 0.70
     Davidson diagonalization with overlap
     ethr =  1.00E-02,  avg # of iterations =  2.1

     negative rho (up, down):  4.800E-04 0.000E+00

     total cpu time spent up to now is       24.4 secs

     total energy              =    -238.23745710 Ry
     estimated scf accuracy    <       6.24137890 Ry

     iteration #  4     ecut=    70.00 Ry     beta= 0.70
     Davidson diagonalization with overlap
     ethr =  1.00E-02,  avg # of iterations =  2.9

     negative rho (up, down):  5.052E-04 0.000E+00

     total cpu time spent up to now is       25.8 secs

     total energy              =    -238.57295164 Ry
     estimated scf accuracy    <       1.06614363 Ry

     iteration #  5     ecut=    70.00 Ry     beta= 0.70
     Davidson diagonalization with overlap
     ethr =  4.44E-03,  avg # of iterations =  1.8

     negative rho (up, down):  4.452E-04 0.000E+00

     total cpu time spent up to now is       27.1 secs

     total energy              =    -238.68740320 Ry
     estimated scf accuracy    <       0.52738162 Ry

     iteration #  6     ecut=    70.00 Ry     beta= 0.70
     Davidson diagonalization with overlap
     ethr =  2.20E-03,  avg # of iterations =  1.0

     negative rho (up, down):  1.175E-03 0.000E+00

     total cpu time spent up to now is       28.2 secs

     total energy              =    -238.41013075 Ry
     estimated scf accuracy    <       0.69690640 Ry

     iteration #  7     ecut=    70.00 Ry     beta= 0.70
     Davidson diagonalization with overlap
     ethr =  2.20E-03,  avg # of iterations =  2.6

     negative rho (up, down):  1.341E-03 0.000E+00

     total cpu time spent up to now is       29.6 secs

     total energy              =    -238.47981563 Ry
     estimated scf accuracy    <       0.05428495 Ry

     iteration #  8     ecut=    70.00 Ry     beta= 0.70
     Davidson diagonalization with overlap
     ethr =  2.26E-04,  avg # of iterations =  4.1

     negative rho (up, down):  1.320E-03 0.000E+00

     total cpu time spent up to now is       31.2 secs

     total energy              =    -238.49860286 Ry
     estimated scf accuracy    <       0.00445418 Ry

     iteration #  9     ecut=    70.00 Ry     beta= 0.70
     Davidson diagonalization with overlap
     ethr =  1.86E-05,  avg # of iterations =  3.6

     negative rho (up, down):  1.749E-03 0.000E+00

     total cpu time spent up to now is       32.8 secs

     total energy              =    -238.49701848 Ry
     estimated scf accuracy    <       0.00617854 Ry

     iteration # 10     ecut=    70.00 Ry     beta= 0.70
     Davidson diagonalization with overlap
     ethr =  1.86E-05,  avg # of iterations =  2.2

     negative rho (up, down):  1.764E-03 0.000E+00

     total cpu time spent up to now is       34.1 secs

     total energy              =    -238.49838471 Ry
     estimated scf accuracy    <       0.00033615 Ry

     iteration # 11     ecut=    70.00 Ry     beta= 0.70
     Davidson diagonalization with overlap
     c_bands:  1 eigenvalues not converged
     ethr =  1.40E-06,  avg # of iterations =  6.3

     negative rho (up, down):  1.786E-03 0.000E+00

     total cpu time spent up to now is       36.3 secs

     total energy              =    -238.50039119 Ry
     estimated scf accuracy    <       0.00512020 Ry

     iteration # 12     ecut=    70.00 Ry     beta= 0.70
     Davidson diagonalization with overlap
     c_bands:  1 eigenvalues not converged
     ethr =  1.40E-06,  avg # of iterations =  3.4

     negative rho (up, down):  1.605E-03 0.000E+00

     total cpu time spent up to now is       37.9 secs

     total energy              =    -238.49861026 Ry
     estimated scf accuracy    <       0.00905501 Ry

     iteration # 13     ecut=    70.00 Ry     beta= 0.70
     Davidson diagonalization with overlap
     ethr =  1.40E-06,  avg # of iterations =  3.9

     negative rho (up, down):  1.590E-03 0.000E+00

     total cpu time spent up to now is       39.6 secs

     total energy              =    -238.49859477 Ry
     estimated scf accuracy    <       0.00391909 Ry

     iteration # 14     ecut=    70.00 Ry     beta= 0.70
     Davidson diagonalization with overlap
     ethr =  1.40E-06,  avg # of iterations =  1.8

     negative rho (up, down):  1.482E-03 0.000E+00

     total cpu time spent up to now is       40.9 secs

     total energy              =    -238.49707192 Ry
     estimated scf accuracy    <       0.00308972 Ry

     iteration # 15     ecut=    70.00 Ry     beta= 0.70
     Davidson diagonalization with overlap
     ethr =  1.40E-06,  avg # of iterations =  5.0

     negative rho (up, down):  1.493E-03 0.000E+00

     total cpu time spent up to now is       42.8 secs

     total energy              =    -238.49770036 Ry
     estimated scf accuracy    <       0.00000318 Ry

     iteration # 16     ecut=    70.00 Ry     beta= 0.70
     Davidson diagonalization with overlap
     ethr =  1.32E-08,  avg # of iterations =  4.3

     negative rho (up, down):  1.483E-03 0.000E+00

     total cpu time spent up to now is       44.7 secs

     total energy              =    -238.49769966 Ry
     estimated scf accuracy    <       0.00002033 Ry

     iteration # 17     ecut=    70.00 Ry     beta= 0.70
     Davidson diagonalization with overlap
     ethr =  1.32E-08,  avg # of iterations =  4.1

     negative rho (up, down):  1.482E-03 0.000E+00

     total cpu time spent up to now is       46.4 secs

     total energy              =    -238.49770205 Ry
     estimated scf accuracy    <       0.00000064 Ry

     iteration # 18     ecut=    70.00 Ry     beta= 0.70
     Davidson diagonalization with overlap
     ethr =  2.66E-09,  avg # of iterations =  2.2

     negative rho (up, down):  1.481E-03 0.000E+00

     total cpu time spent up to now is       47.7 secs

     total energy              =    -238.49770203 Ry
     estimated scf accuracy    <       0.00000013 Ry

     iteration # 19     ecut=    70.00 Ry     beta= 0.70
     Davidson diagonalization with overlap
     ethr =  5.49E-10,  avg # of iterations =  4.2

     negative rho (up, down):  1.482E-03 0.000E+00

     total cpu time spent up to now is       49.4 secs

     total energy              =    -238.49770209 Ry
     estimated scf accuracy    <       0.00000001 Ry

     iteration # 20     ecut=    70.00 Ry     beta= 0.70
     Davidson diagonalization with overlap
     ethr =  5.80E-11,  avg # of iterations =  2.8

     negative rho (up, down):  1.482E-03 0.000E+00

     total cpu time spent up to now is       50.7 secs

     End of self-consistent calculation

     Number of k-points >= 100: set verbosity='high' to print the bands.

     the Fermi energy is    12.5139 ev

!    total energy              =    -238.49770209 Ry
     estimated scf accuracy    <          3.6E-10 Ry
     smearing contrib. (-TS)   =       0.00018533 Ry
     internal energy E=F+TS    =    -238.49788742 Ry

     The total energy is F=E-TS. E is the sum of the following terms:
     one-electron contribution =     -85.88414541 Ry
     hartree contribution      =      50.03708607 Ry
     xc contribution           =     -35.98778668 Ry
     ewald contribution        =    -166.66304140 Ry

     convergence has been achieved in  20 iterations


     Computing stress (Cartesian axis) and pressure


     negative rho (up, down):  1.482E-03 0.000E+00
          total   stress  (Ry/bohr**3)                   (kbar)     P=      -58.61
  -0.00032744   0.00000000   0.00000000          -48.17        0.00        0.00
   0.00000000  -0.00032453   0.00000000            0.00      -47.74        0.00
   0.00000000   0.00000000  -0.00054337            0.00        0.00      -79.93

     Energy error            =      2.5E-01 Ry
     Gradient error          =      0.0E+00 Ry/Bohr
     Cell gradient error     =      8.0E+01 kbar

     number of scf cycles    =   2
     number of bfgs steps    =   1

     enthalpy           old  =    -238.2497787697 Ry
     enthalpy           new  =    -238.4977020877 Ry

     CASE: enthalpy          _new < enthalpy          _old

     new trust radius        =       0.0469058509 bohr
     new conv_thr            =            1.0E-10 Ry

     new unit-cell volume =    240.49089 a.u.^3 (    35.63707 Ang^3 )
     density =      4.46081 g/cm^3

CELL_PARAMETERS (angstrom)
   1.469347190  -2.544349909   0.000000000
   1.469347190   2.544349909   0.000000000
   0.000000000   0.000000000   4.766183589

ATOMIC_POSITIONS (crystal)
Ti            0.0000000000        0.0000000000        0.0000000000    0   0   0
Ti            0.6666666667        0.3333333333        0.5000000000    0   0   0



     Writing config-only to output data dir ./out/Ti_hcp.save/
     NEW-OLD atomic charge density approx. for the potential

     Check: negative core charge=   -0.000010

     negative rho (up, down):  1.358E-03 0.000E+00
     extrapolated charge   23.25531, renormalised to   24.00000

     total cpu time spent up to now is       52.8 secs

     Self-consistent Calculation

     iteration #  1     ecut=    70.00 Ry     beta= 0.70
     Davidson diagonalization with overlap
     ethr =  1.00E-06,  avg # of iterations =  8.7

     negative rho (up, down):  4.897E-04 0.000E+00

     total cpu time spent up to now is       55.8 secs

     total energy              =    -238.23332595 Ry
     estimated scf accuracy    <       0.22521883 Ry

     iteration #  2     ecut=    70.00 Ry     beta= 0.70
     Davidson diagonalization with overlap
     ethr =  9.38E-04,  avg # of iterations =  4.9

     negative rho (up, down):  9.671E-04 0.000E+00

     total cpu time spent up to now is       57.7 secs

     total energy              =    -238.48149549 Ry
     estimated scf accuracy    <       0.58622388 Ry

     iteration #  3     ecut=    70.00 Ry     beta= 0.70
     Davidson diagonalization with overlap
     ethr =  9.38E-04,  avg # of iterations =  2.2

     negative rho (up, down):  1.032E-03 0.000E+00

     total cpu time spent up to now is       59.1 secs

     total energy              =    -238.51801961 Ry
     estimated scf accuracy    <       0.10786623 Ry

     iteration #  4     ecut=    70.00 Ry     beta= 0.70
     Davidson diagonalization with overlap
     ethr =  4.49E-04,  avg # of iterations =  1.3

     negative rho (up, down):  1.073E-03 0.000E+00

     total cpu time spent up to now is       60.2 secs

     total energy              =    -238.51516192 Ry
     estimated scf accuracy    <       0.07349768 Ry

     iteration #  5     ecut=    70.00 Ry     beta= 0.70
     Davidson diagonalization with overlap
     ethr =  3.06E-04,  avg # of iterations =  1.0

     negative rho (up, down):  1.235E-03 0.000E+00

     total cpu time spent up to now is       61.3 secs

     total energy              =    -238.50291195 Ry
     estimated scf accuracy    <       0.05813084 Ry

     iteration #  6     ecut=    70.00 Ry     beta= 0.70
     Davidson diagonalization with overlap
     ethr =  2.42E-04,  avg # of iterations =  1.9

     negative rho (up, down):  1.448E-03 0.000E+00

     total cpu time spent up to now is       62.6 secs

     total energy              =    -238.49533364 Ry
     estimated scf accuracy    <       0.02264902 Ry

     iteration #  7     ecut=    70.00 Ry     beta= 0.70
     Davidson diagonalization with overlap
     ethr =  9.44E-05,  avg # of iterations =  3.0

     negative rho (up, down):  1.409E-03 0.000E+00

     total cpu time spent up to now is       64.0 secs

     total energy              =    -238.50043724 Ry
     estimated scf accuracy    <       0.00022516 Ry

     iteration #  8     ecut=    70.00 Ry     beta= 0.70
     Davidson diagonalization with overlap
     ethr =  9.38E-07,  avg # of iterations =  4.3

     negative rho (up, down):  1.411E-03 0.000E+00

     total cpu time spent up to now is       66.0 secs

     total energy              =    -238.50058019 Ry
     estimated scf accuracy    <       0.00100237 Ry

     iteration #  9     ecut=    70.00 Ry     beta= 0.70
     Davidson diagonalization with overlap
     ethr =  9.38E-07,  avg # of iterations =  1.0

     negative rho (up, down):  1.460E-03 0.000E+00

     total cpu time spent up to now is       67.1 secs

     total energy              =    -238.50015361 Ry
     estimated scf accuracy    <       0.00096035 Ry

     iteration # 10     ecut=    70.00 Ry     beta= 0.70
     Davidson diagonalization with overlap
     ethr =  9.38E-07,  avg # of iterations =  3.6

     negative rho (up, down):  1.470E-03 0.000E+00

     total cpu time spent up to now is       68.8 secs

     total energy              =    -238.50026965 Ry
     estimated scf accuracy    <       0.00004347 Ry

     iteration # 11     ecut=    70.00 Ry     beta= 0.70
     Davidson diagonalization with overlap
     ethr =  1.81E-07,  avg # of iterations =  2.4

     negative rho (up, down):  1.481E-03 0.000E+00

     total cpu time spent up to now is       70.1 secs

     total energy              =    -238.50026903 Ry
     estimated scf accuracy    <       0.00001341 Ry

     iteration # 12     ecut=    70.00 Ry     beta= 0.70
     Davidson diagonalization with overlap
     ethr =  5.59E-08,  avg # of iterations =  2.7

     negative rho (up, down):  1.490E-03 0.000E+00

     total cpu time spent up to now is       71.5 secs

     total energy              =    -238.50027106 Ry
     estimated scf accuracy    <       0.00000261 Ry

     iteration # 13     ecut=    70.00 Ry     beta= 0.70
     Davidson diagonalization with overlap
     ethr =  1.09E-08,  avg # of iterations =  3.9

     negative rho (up, down):  1.499E-03 0.000E+00

     total cpu time spent up to now is       73.2 secs

     total energy              =    -238.50027498 Ry
     estimated scf accuracy    <       0.00000515 Ry

     iteration # 14     ecut=    70.00 Ry     beta= 0.70
     Davidson diagonalization with overlap
     ethr =  1.09E-08,  avg # of iterations =  3.4

     negative rho (up, down):  1.501E-03 0.000E+00

     total cpu time spent up to now is       74.8 secs

     total energy              =    -238.50027708 Ry
     estimated scf accuracy    <       0.00001598 Ry

     iteration # 15     ecut=    70.00 Ry     beta= 0.70
     Davidson diagonalization with overlap
     ethr =  1.09E-08,  avg # of iterations =  1.2

     negative rho (up, down):  1.510E-03 0.000E+00

     total cpu time spent up to now is       75.9 secs

     total energy              =    -238.50028956 Ry
     estimated scf accuracy    <       0.00001972 Ry

     iteration # 16     ecut=    70.00 Ry     beta= 0.70
     Davidson diagonalization with overlap
     ethr =  1.09E-08,  avg # of iterations =  4.1

     negative rho (up, down):  1.492E-03 0.000E+00

     total cpu time spent up to now is       77.7 secs

     total energy              =    -238.50026086 Ry
     estimated scf accuracy    <       0.00006949 Ry

     iteration # 17     ecut=    70.00 Ry     beta= 0.70
     Davidson diagonalization with overlap
     ethr =  1.09E-08,  avg # of iterations =  4.4

     negative rho (up, down):  1.492E-03 0.000E+00

     total cpu time spent up to now is       79.6 secs

     total energy              =    -238.50027099 Ry
     estimated scf accuracy    <       0.00000073 Ry

     iteration # 18     ecut=    70.00 Ry     beta= 0.70
     Davidson diagonalization with overlap
     ethr =  3.06E-09,  avg # of iterations =  1.2

     negative rho (up, down):  1.492E-03 0.000E+00

     total cpu time spent up to now is       80.7 secs

     total energy              =    -238.50027087 Ry
     estimated scf accuracy    <       0.00000042 Ry

     iteration # 19     ecut=    70.00 Ry     beta= 0.70
     Davidson diagonalization with overlap
     ethr =  1.74E-09,  avg # of iterations =  2.0

     negative rho (up, down):  1.492E-03 0.000E+00

     total cpu time spent up to now is       82.0 secs

     total energy              =    -238.50027088 Ry
     estimated scf accuracy    <       0.00000004 Ry

     iteration # 20     ecut=    70.00 Ry     beta= 0.70
     Davidson diagonalization with overlap
     ethr =  1.71E-10,  avg # of iterations =  4.2

     negative rho (up, down):  1.492E-03 0.000E+00

     total cpu time spent up to now is       83.7 secs

     total energy              =    -238.50027090 Ry
     estimated scf accuracy    <       0.00000001 Ry

     iteration # 21     ecut=    70.00 Ry     beta= 0.70
     Davidson diagonalization with overlap
     ethr =  5.05E-11,  avg # of iterations =  2.1

     negative rho (up, down):  1.492E-03 0.000E+00

     total cpu time spent up to now is       85.0 secs

     total energy              =    -238.50027090 Ry
     estimated scf accuracy    <          3.6E-10 Ry

     iteration # 22     ecut=    70.00 Ry     beta= 0.70
     Davidson diagonalization with overlap
     ethr =  1.50E-12,  avg # of iterations =  4.4

     negative rho (up, down):  1.492E-03 0.000E+00

     total cpu time spent up to now is       86.8 secs

     total energy              =    -238.50027090 Ry
     estimated scf accuracy    <          1.3E-10 Ry

     iteration # 23     ecut=    70.00 Ry     beta= 0.70
     Davidson diagonalization with overlap
     ethr =  5.43E-13,  avg # of iterations =  2.0

     negative rho (up, down):  1.492E-03 0.000E+00

     total cpu time spent up to now is       88.1 secs

     End of self-consistent calculation

     Number of k-points >= 100: set verbosity='high' to print the bands.

     the Fermi energy is    13.0261 ev

!    total energy              =    -238.50027090 Ry
     estimated scf accuracy    <          1.3E-11 Ry
     smearing contrib. (-TS)   =       0.00014992 Ry
     internal energy E=F+TS    =    -238.50042083 Ry

     The total energy is F=E-TS. E is the sum of the following terms:
     one-electron contribution =     -83.09192800 Ry
     hartree contribution      =      49.14993486 Ry
     xc contribution           =     -36.03719342 Ry
     ewald contribution        =    -168.52123427 Ry

     convergence has been achieved in  23 iterations


     Computing stress (Cartesian axis) and pressure


     negative rho (up, down):  1.492E-03 0.000E+00
          total   stress  (Ry/bohr**3)                   (kbar)     P=      -26.50
  -0.00011824   0.00000000   0.00000000          -17.39        0.00        0.00
   0.00000000  -0.00011599   0.00000000            0.00      -17.06        0.00
   0.00000000   0.00000000  -0.00030618            0.00        0.00      -45.04

     Energy error            =      2.6E-03 Ry
     Gradient error          =      0.0E+00 Ry/Bohr
     Cell gradient error     =      4.5E+01 kbar

     number of scf cycles    =   3
     number of bfgs steps    =   2

     enthalpy           old  =    -238.4977020877 Ry
     enthalpy           new  =    -238.5002709038 Ry

     CASE: enthalpy          _new < enthalpy          _old

     new trust radius        =       0.0510426873 bohr
     new conv_thr            =            1.0E-10 Ry

     new unit-cell volume =    233.58842 a.u.^3 (    34.61423 Ang^3 )
     density =      4.59262 g/cm^3

CELL_PARAMETERS (angstrom)
   1.460080148  -2.528622296   0.000000000
   1.460080148   2.528622296   0.000000000
   0.000000000   0.000000000   4.687745864

ATOMIC_POSITIONS (crystal)
Ti            0.0000000000        0.0000000000        0.0000000000    0   0   0
Ti            0.6666666667        0.3333333333        0.5000000000    0   0   0



     Writing config-only to output data dir ./out/Ti_hcp.save/
     NEW-OLD atomic charge density approx. for the potential

     Check: negative core charge=   -0.000010

     negative rho (up, down):  1.387E-03 0.000E+00
     extrapolated charge   23.34991, renormalised to   24.00000

     total cpu time spent up to now is       90.1 secs

     Self-consistent Calculation

     iteration #  1     ecut=    70.00 Ry     beta= 0.70
     Davidson diagonalization with overlap
     c_bands:  1 eigenvalues not converged
     ethr =  1.00E-06,  avg # of iterations =  8.6

     negative rho (up, down):  5.061E-04 0.000E+00

     total cpu time spent up to now is       93.2 secs

     total energy              =    -238.31464056 Ry
     estimated scf accuracy    <       0.15516751 Ry

     iteration #  2     ecut=    70.00 Ry     beta= 0.70
     Davidson diagonalization with overlap
     ethr =  6.47E-04,  avg # of iterations =  4.9

     negative rho (up, down):  1.075E-03 0.000E+00

     total cpu time spent up to now is       95.2 secs

     total energy              =    -238.48717890 Ry
     estimated scf accuracy    <       0.40499118 Ry

     iteration #  3     ecut=    70.00 Ry     beta= 0.70
     Davidson diagonalization with overlap
     ethr =  6.47E-04,  avg # of iterations =  2.3

     negative rho (up, down):  1.113E-03 0.000E+00

     total cpu time spent up to now is       96.6 secs

     total energy              =    -238.51436127 Ry
     estimated scf accuracy    <       0.07231950 Ry

     iteration #  4     ecut=    70.00 Ry     beta= 0.70
     Davidson diagonalization with overlap
     ethr =  3.01E-04,  avg # of iterations =  1.2

     negative rho (up, down):  1.153E-03 0.000E+00

     total cpu time spent up to now is       97.7 secs

     total energy              =    -238.51108844 Ry
     estimated scf accuracy    <       0.05217136 Ry

     iteration #  5     ecut=    70.00 Ry     beta= 0.70
     Davidson diagonalization with overlap
     ethr =  2.17E-04,  avg # of iterations =  1.0

     negative rho (up, down):  1.287E-03 0.000E+00

     total cpu time spent up to now is       98.8 secs

     total energy              =    -238.50231376 Ry
     estimated scf accuracy    <       0.03856127 Ry

     iteration #  6     ecut=    70.00 Ry     beta= 0.70
     Davidson diagonalization with overlap
     ethr =  1.61E-04,  avg # of iterations =  1.8

     negative rho (up, down):  1.398E-03 0.000E+00

     total cpu time spent up to now is      100.1 secs

     total energy              =    -238.49982467 Ry
     estimated scf accuracy    <       0.01370479 Ry

     iteration #  7     ecut=    70.00 Ry     beta= 0.70
     Davidson diagonalization with overlap
     ethr =  5.71E-05,  avg # of iterations =  2.6

     negative rho (up, down):  1.444E-03 0.000E+00

     total cpu time spent up to now is      101.4 secs

     total energy              =    -238.50087839 Ry
     estimated scf accuracy    <       0.00209553 Ry

     iteration #  8     ecut=    70.00 Ry     beta= 0.70
     Davidson diagonalization with overlap
     ethr =  8.73E-06,  avg # of iterations =  3.1

     negative rho (up, down):  1.462E-03 0.000E+00

     total cpu time spent up to now is      102.9 secs

     total energy              =    -238.50106419 Ry
     estimated scf accuracy    <       0.00041539 Ry

     iteration #  9     ecut=    70.00 Ry     beta= 0.70
     Davidson diagonalization with overlap
     ethr =  1.73E-06,  avg # of iterations =  2.1

     negative rho (up, down):  1.496E-03 0.000E+00

     total cpu time spent up to now is      104.2 secs

     total energy              =    -238.50100727 Ry
     estimated scf accuracy    <       0.00016815 Ry

     iteration # 10     ecut=    70.00 Ry     beta= 0.70
     Davidson diagonalization with overlap
     ethr =  7.01E-07,  avg # of iterations =  2.8

     negative rho (up, down):  1.498E-03 0.000E+00

     total cpu time spent up to now is      105.5 secs

     total energy              =    -238.50104944 Ry
     estimated scf accuracy    <       0.00000232 Ry

     iteration # 11     ecut=    70.00 Ry     beta= 0.70
     Davidson diagonalization with overlap
     ethr =  9.65E-09,  avg # of iterations =  4.3

     negative rho (up, down):  1.508E-03 0.000E+00

     total cpu time spent up to now is      107.3 secs

     total energy              =    -238.50104878 Ry
     estimated scf accuracy    <       0.00000594 Ry

     iteration # 12     ecut=    70.00 Ry     beta= 0.70
     Davidson diagonalization with overlap
     ethr =  9.65E-09,  avg # of iterations =  3.4

     negative rho (up, down):  1.509E-03 0.000E+00

     total cpu time spent up to now is      108.8 secs

     total energy              =    -238.50104966 Ry
     estimated scf accuracy    <       0.00000121 Ry

     iteration # 13     ecut=    70.00 Ry     beta= 0.70
     Davidson diagonalization with overlap
     ethr =  5.06E-09,  avg # of iterations =  1.0

     negative rho (up, down):  1.522E-03 0.000E+00

     total cpu time spent up to now is      110.0 secs

     total energy              =    -238.50104969 Ry
     estimated scf accuracy    <       0.00000117 Ry

     iteration # 14     ecut=    70.00 Ry     beta= 0.70
     Davidson diagonalization with overlap
     ethr =  4.87E-09,  avg # of iterations =  3.7

     negative rho (up, down):  1.520E-03 0.000E+00

     total cpu time spent up to now is      111.7 secs

     total energy              =    -238.50104958 Ry
     estimated scf accuracy    <       0.00000250 Ry

     iteration # 15     ecut=    70.00 Ry     beta= 0.70
     Davidson diagonalization with overlap
     ethr =  4.87E-09,  avg # of iterations =  2.0

     negative rho (up, down):  1.519E-03 0.000E+00

     total cpu time spent up to now is      112.9 secs

     total energy              =    -238.50104947 Ry
     estimated scf accuracy    <       0.00000081 Ry

     iteration # 16     ecut=    70.00 Ry     beta= 0.70
     Davidson diagonalization with overlap
     ethr =  3.37E-09,  avg # of iterations =  2.0

     negative rho (up, down):  1.518E-03 0.000E+00

     total cpu time spent up to now is      114.2 secs

     total energy              =    -238.50104939 Ry
     estimated scf accuracy    <       0.00000023 Ry

     iteration # 17     ecut=    70.00 Ry     beta= 0.70
     Davidson diagonalization with overlap
     ethr =  9.66E-10,  avg # of iterations =  3.6

     negative rho (up, down):  1.518E-03 0.000E+00

     total cpu time spent up to now is      115.7 secs

     total energy              =    -238.50104947 Ry
     estimated scf accuracy    <       0.00000002 Ry

     iteration # 18     ecut=    70.00 Ry     beta= 0.70
     Davidson diagonalization with overlap
     ethr =  8.15E-11,  avg # of iterations =  2.0

     negative rho (up, down):  1.518E-03 0.000E+00

     total cpu time spent up to now is      117.0 secs

     total energy              =    -238.50104947 Ry
     estimated scf accuracy    <          5.3E-09 Ry

     iteration # 19     ecut=    70.00 Ry     beta= 0.70
     Davidson diagonalization with overlap
     ethr =  2.21E-11,  avg # of iterations =  2.9

     negative rho (up, down):  1.518E-03 0.000E+00

     total cpu time spent up to now is      118.3 secs

     End of self-consistent calculation

     Number of k-points >= 100: set verbosity='high' to print the bands.

     the Fermi energy is    13.4879 ev

!    total energy              =    -238.50104947 Ry
     estimated scf accuracy    <          3.9E-11 Ry
     smearing contrib. (-TS)   =       0.00014218 Ry
     internal energy E=F+TS    =    -238.50119164 Ry

     The total energy is F=E-TS. E is the sum of the following terms:
     one-electron contribution =     -80.64098673 Ry
     hartree contribution      =      48.38040216 Ry
     xc contribution           =     -36.08206802 Ry
     ewald contribution        =    -170.15853904 Ry

     convergence has been achieved in  19 iterations


     Computing stress (Cartesian axis) and pressure


     negative rho (up, down):  1.518E-03 0.000E+00
          total   stress  (Ry/bohr**3)                   (kbar)     P=        4.83
   0.00007103  -0.00000000   0.00000000           10.45       -0.00        0.00
  -0.00000000   0.00007214   0.00000000           -0.00       10.61        0.00
   0.00000000   0.00000000  -0.00004457            0.00        0.00       -6.56

     Energy error            =      7.8E-04 Ry
     Gradient error          =      0.0E+00 Ry/Bohr
     Cell gradient error     =      1.1E+01 kbar

     number of scf cycles    =   4
     number of bfgs steps    =   3

     enthalpy           old  =    -238.5002709038 Ry
     enthalpy           new  =    -238.5010494663 Ry

     CASE: enthalpy          _new < enthalpy          _old

     new trust radius        =       0.0057726272 bohr
     new conv_thr            =            1.0E-10 Ry

     new unit-cell volume =    233.94584 a.u.^3 (    34.66720 Ang^3 )
     density =      4.58560 g/cm^3

CELL_PARAMETERS (angstrom)
   1.462553578  -2.532992011   0.000000000
   1.462553578   2.532992011   0.000000000
   0.000000000   0.000000000   4.678893039

ATOMIC_POSITIONS (crystal)
Ti            0.0000000000        0.0000000000        0.0000000000    0   0   0
Ti            0.6666666667        0.3333333333        0.5000000000    0   0   0



     Writing config-only to output data dir ./out/Ti_hcp.save/
     NEW-OLD atomic charge density approx. for the potential

     Check: negative core charge=   -0.000010

     negative rho (up, down):  1.522E-03 0.000E+00
     extrapolated charge   24.03361, renormalised to   24.00000

     total cpu time spent up to now is      120.3 secs

     Self-consistent Calculation

     iteration #  1     ecut=    70.00 Ry     beta= 0.70
     Davidson diagonalization with overlap
     ethr =  1.00E-06,  avg # of iterations =  3.3

     negative rho (up, down):  1.570E-03 0.000E+00

     total cpu time spent up to now is      122.3 secs

     total energy              =    -238.50073126 Ry
     estimated scf accuracy    <       0.00031026 Ry

     iteration #  2     ecut=    70.00 Ry     beta= 0.70
     Davidson diagonalization with overlap
     ethr =  1.29E-06,  avg # of iterations =  4.9

     negative rho (up, down):  1.534E-03 0.000E+00

     total cpu time spent up to now is      124.2 secs

     total energy              =    -238.50106884 Ry
     estimated scf accuracy    <       0.00091913 Ry

     iteration #  3     ecut=    70.00 Ry     beta= 0.70
     Davidson diagonalization with overlap
     ethr =  1.29E-06,  avg # of iterations =  2.9

     negative rho (up, down):  1.515E-03 0.000E+00

     total cpu time spent up to now is      125.6 secs

     total energy              =    -238.50108877 Ry
     estimated scf accuracy    <       0.00012365 Ry

     iteration #  4     ecut=    70.00 Ry     beta= 0.70
     Davidson diagonalization with overlap
     ethr =  5.15E-07,  avg # of iterations =  3.0

     negative rho (up, down):  1.512E-03 0.000E+00

     total cpu time spent up to now is      127.0 secs

     total energy              =    -238.50111363 Ry
     estimated scf accuracy    <       0.00000159 Ry

     iteration #  5     ecut=    70.00 Ry     beta= 0.70
     Davidson diagonalization with overlap
     ethr =  6.61E-09,  avg # of iterations =  4.3

     negative rho (up, down):  1.513E-03 0.000E+00

     total cpu time spent up to now is      128.8 secs

     total energy              =    -238.50111607 Ry
     estimated scf accuracy    <       0.00000115 Ry

     iteration #  6     ecut=    70.00 Ry     beta= 0.70
     Davidson diagonalization with overlap
     ethr =  4.81E-09,  avg # of iterations =  1.1

     negative rho (up, down):  1.517E-03 0.000E+00

     total cpu time spent up to now is      129.9 secs

     total energy              =    -238.50111538 Ry
     estimated scf accuracy    <       0.00000096 Ry

     iteration #  7     ecut=    70.00 Ry     beta= 0.70
     Davidson diagonalization with overlap
     ethr =  4.00E-09,  avg # of iterations =  3.7

     negative rho (up, down):  1.517E-03 0.000E+00

     total cpu time spent up to now is      131.6 secs

     total energy              =    -238.50111583 Ry
     estimated scf accuracy    <       0.00000039 Ry

     iteration #  8     ecut=    70.00 Ry     beta= 0.70
     Davidson diagonalization with overlap
     ethr =  1.63E-09,  avg # of iterations =  1.0

     negative rho (up, down):  1.515E-03 0.000E+00

     total cpu time spent up to now is      132.7 secs

     total energy              =    -238.50111572 Ry
     estimated scf accuracy    <       0.00000023 Ry

     iteration #  9     ecut=    70.00 Ry     beta= 0.70
     Davidson diagonalization with overlap
     ethr =  9.76E-10,  avg # of iterations =  2.1

     negative rho (up, down):  1.515E-03 0.000E+00

     total cpu time spent up to now is      134.0 secs

     total energy              =    -238.50111576 Ry
     estimated scf accuracy    <          2.8E-09 Ry

     iteration # 10     ecut=    70.00 Ry     beta= 0.70
     Davidson diagonalization with overlap
     ethr =  1.15E-11,  avg # of iterations =  4.0

     negative rho (up, down):  1.515E-03 0.000E+00

     total cpu time spent up to now is      135.7 secs

     total energy              =    -238.50111576 Ry
     estimated scf accuracy    <          6.0E-10 Ry

     iteration # 11     ecut=    70.00 Ry     beta= 0.70
     Davidson diagonalization with overlap
     ethr =  2.50E-12,  avg # of iterations =  2.4

     negative rho (up, down):  1.515E-03 0.000E+00

     total cpu time spent up to now is      137.0 secs

     End of self-consistent calculation

     Number of k-points >= 100: set verbosity='high' to print the bands.

     the Fermi energy is    13.4642 ev

!    total energy              =    -238.50111576 Ry
     estimated scf accuracy    <          4.5E-11 Ry
     smearing contrib. (-TS)   =       0.00014396 Ry
     internal energy E=F+TS    =    -238.50125972 Ry

     The total energy is F=E-TS. E is the sum of the following terms:
     one-electron contribution =     -80.77589505 Ry
     hartree contribution      =      48.42265504 Ry
     xc contribution           =     -36.07958487 Ry
     ewald contribution        =    -170.06843484 Ry

     convergence has been achieved in  11 iterations


     Computing stress (Cartesian axis) and pressure


     negative rho (up, down):  1.515E-03 0.000E+00
          total   stress  (Ry/bohr**3)                   (kbar)     P=        3.24
   0.00005003   0.00000000   0.00000000            7.36        0.00        0.00
   0.00000000   0.00005082   0.00000000            0.00        7.48        0.00
   0.00000000   0.00000000  -0.00003473            0.00        0.00       -5.11

     Energy error            =      6.6E-05 Ry
     Gradient error          =      0.0E+00 Ry/Bohr
     Cell gradient error     =      7.5E+00 kbar

     number of scf cycles    =   5
     number of bfgs steps    =   4

     enthalpy           old  =    -238.5010494663 Ry
     enthalpy           new  =    -238.5011157641 Ry

     CASE: enthalpy          _new < enthalpy          _old

     new trust radius        =       0.0063667697 bohr
     new conv_thr            =            1.0E-10 Ry

     new unit-cell volume =    234.21558 a.u.^3 (    34.70717 Ang^3 )
     density =      4.58032 g/cm^3

CELL_PARAMETERS (angstrom)
   1.464896925  -2.537136452   0.000000000
   1.464896925   2.537136452   0.000000000
   0.000000000   0.000000000   4.669154930

ATOMIC_POSITIONS (crystal)
Ti            0.0000000000        0.0000000000        0.0000000000    0   0   0
Ti            0.6666666667        0.3333333333        0.5000000000    0   0   0



     Writing config-only to output data dir ./out/Ti_hcp.save/
     NEW-OLD atomic charge density approx. for the potential

     Check: negative core charge=   -0.000010

     negative rho (up, down):  1.518E-03 0.000E+00
     extrapolated charge   24.02534, renormalised to   24.00000

     total cpu time spent up to now is      138.6 secs

     Self-consistent Calculation

     iteration #  1     ecut=    70.00 Ry     beta= 0.70
     Davidson diagonalization with overlap
     ethr =  1.00E-06,  avg # of iterations =  3.1

     negative rho (up, down):  1.553E-03 0.000E+00

     total cpu time spent up to now is      140.5 secs

     total energy              =    -238.50094775 Ry
     estimated scf accuracy    <       0.00017212 Ry

     iteration #  2     ecut=    70.00 Ry     beta= 0.70
     Davidson diagonalization with overlap
     ethr =  7.17E-07,  avg # of iterations =  4.9

     negative rho (up, down):  1.527E-03 0.000E+00

     total cpu time spent up to now is      142.5 secs

     total energy              =    -238.50113402 Ry
     estimated scf accuracy    <       0.00050455 Ry

     iteration #  3     ecut=    70.00 Ry     beta= 0.70
     Davidson diagonalization with overlap
     ethr =  7.17E-07,  avg # of iterations =  2.9

     negative rho (up, down):  1.511E-03 0.000E+00

     total cpu time spent up to now is      143.9 secs

     total energy              =    -238.50114153 Ry
     estimated scf accuracy    <       0.00006725 Ry

     iteration #  4     ecut=    70.00 Ry     beta= 0.70
     Davidson diagonalization with overlap
     ethr =  2.80E-07,  avg # of iterations =  3.3

     negative rho (up, down):  1.511E-03 0.000E+00

     total cpu time spent up to now is      145.3 secs

     total energy              =    -238.50116007 Ry
     estimated scf accuracy    <       0.00000028 Ry

     iteration #  5     ecut=    70.00 Ry     beta= 0.70
     Davidson diagonalization with overlap
     ethr =  1.17E-09,  avg # of iterations =  4.2

     negative rho (up, down):  1.511E-03 0.000E+00

     total cpu time spent up to now is      147.0 secs

     total energy              =    -238.50116042 Ry
     estimated scf accuracy    <       0.00000077 Ry

     iteration #  6     ecut=    70.00 Ry     beta= 0.70
     Davidson diagonalization with overlap
     ethr =  1.17E-09,  avg # of iterations =  1.1

     negative rho (up, down):  1.513E-03 0.000E+00

     total cpu time spent up to now is      148.2 secs

     total energy              =    -238.50116017 Ry
     estimated scf accuracy    <       0.00000047 Ry

     iteration #  7     ecut=    70.00 Ry     beta= 0.70
     Davidson diagonalization with overlap
     ethr =  1.17E-09,  avg # of iterations =  3.1

     negative rho (up, down):  1.513E-03 0.000E+00

     total cpu time spent up to now is      149.7 secs

     total energy              =    -238.50116029 Ry
     estimated scf accuracy    <          7.6E-09 Ry

     iteration #  8     ecut=    70.00 Ry     beta= 0.70
     Davidson diagonalization with overlap
     ethr =  3.18E-11,  avg # of iterations =  3.5

     negative rho (up, down):  1.513E-03 0.000E+00

     total cpu time spent up to now is      151.2 secs

     total energy              =    -238.50116028 Ry
     estimated scf accuracy    <       0.00000001 Ry

     iteration #  9     ecut=    70.00 Ry     beta= 0.70
     Davidson diagonalization with overlap
     ethr =  3.18E-11,  avg # of iterations =  2.2

     negative rho (up, down):  1.513E-03 0.000E+00

     total cpu time spent up to now is      152.5 secs

     total energy              =    -238.50116029 Ry
     estimated scf accuracy    <          3.7E-10 Ry

     iteration # 10     ecut=    70.00 Ry     beta= 0.70
     Davidson diagonalization with overlap
     ethr =  1.55E-12,  avg # of iterations =  4.1

     negative rho (up, down):  1.513E-03 0.000E+00

     total cpu time spent up to now is      154.2 secs

     total energy              =    -238.50116029 Ry
     estimated scf accuracy    <          1.4E-10 Ry

     iteration # 11     ecut=    70.00 Ry     beta= 0.70
     Davidson diagonalization with overlap
     ethr =  5.81E-13,  avg # of iterations =  3.7

     negative rho (up, down):  1.513E-03 0.000E+00

     total cpu time spent up to now is      155.8 secs

     End of self-consistent calculation

     Number of k-points >= 100: set verbosity='high' to print the bands.

     the Fermi energy is    13.4463 ev

!    total energy              =    -238.50116029 Ry
     estimated scf accuracy    <          6.6E-11 Ry
     smearing contrib. (-TS)   =       0.00014302 Ry
     internal energy E=F+TS    =    -238.50130331 Ry

     The total energy is F=E-TS. E is the sum of the following terms:
     one-electron contribution =     -80.87983241 Ry
     hartree contribution      =      48.45521928 Ry
     xc contribution           =     -36.07766694 Ry
     ewald contribution        =    -169.99902324 Ry

     convergence has been achieved in  11 iterations


     Computing stress (Cartesian axis) and pressure


     negative rho (up, down):  1.513E-03 0.000E+00
          total   stress  (Ry/bohr**3)                   (kbar)     P=        2.03
   0.00003107   0.00000000   0.00000000            4.57        0.00        0.00
   0.00000000   0.00003155   0.00000000            0.00        4.64        0.00
   0.00000000   0.00000000  -0.00002123            0.00        0.00       -3.12

     Energy error            =      4.5E-05 Ry
     Gradient error          =      0.0E+00 Ry/Bohr
     Cell gradient error     =      4.6E+00 kbar

     number of scf cycles    =   6
     number of bfgs steps    =   5

     enthalpy           old  =    -238.5011157641 Ry
     enthalpy           new  =    -238.5011602853 Ry

     CASE: enthalpy          _new < enthalpy          _old

     new trust radius        =       0.0095755882 bohr
     new conv_thr            =            1.0E-10 Ry

     new unit-cell volume =    234.63056 a.u.^3 (    34.76866 Ang^3 )
     density =      4.57222 g/cm^3

CELL_PARAMETERS (angstrom)
   1.468456204  -2.543428206   0.000000000
   1.468456204   2.543428206   0.000000000
   0.000000000   0.000000000   4.654547768

ATOMIC_POSITIONS (crystal)
Ti            0.0000000000        0.0000000000        0.0000000000    0   0   0
Ti            0.6666666667        0.3333333333        0.5000000000    0   0   0



     Writing config-only to output data dir ./out/Ti_hcp.save/
     NEW-OLD atomic charge density approx. for the potential

     Check: negative core charge=   -0.000010

     negative rho (up, down):  1.516E-03 0.000E+00
     extrapolated charge   24.03891, renormalised to   24.00000

     total cpu time spent up to now is      157.5 secs

     Self-consistent Calculation

     iteration #  1     ecut=    70.00 Ry     beta= 0.70
     Davidson diagonalization with overlap
     ethr =  1.00E-06,  avg # of iterations =  3.9

     negative rho (up, down):  1.574E-03 0.000E+00

     total cpu time spent up to now is      159.5 secs

     total energy              =    -238.50065475 Ry
     estimated scf accuracy    <       0.00043162 Ry

     iteration #  2     ecut=    70.00 Ry     beta= 0.70
     Davidson diagonalization with overlap
     ethr =  1.80E-06,  avg # of iterations =  5.0

     negative rho (up, down):  1.532E-03 0.000E+00

     total cpu time spent up to now is      161.5 secs

     total energy              =    -238.50112110 Ry
     estimated scf accuracy    <       0.00127564 Ry

     iteration #  3     ecut=    70.00 Ry     beta= 0.70
     Davidson diagonalization with overlap
     ethr =  1.80E-06,  avg # of iterations =  2.9

     negative rho (up, down):  1.508E-03 0.000E+00

     total cpu time spent up to now is      162.9 secs

     total energy              =    -238.50114473 Ry
     estimated scf accuracy    <       0.00017068 Ry

     iteration #  4     ecut=    70.00 Ry     beta= 0.70
     Davidson diagonalization with overlap
     ethr =  7.11E-07,  avg # of iterations =  3.2

     negative rho (up, down):  1.506E-03 0.000E+00

     total cpu time spent up to now is      164.3 secs

     total energy              =    -238.50118571 Ry
     estimated scf accuracy    <       0.00000018 Ry

     iteration #  5     ecut=    70.00 Ry     beta= 0.70
     Davidson diagonalization with overlap
     ethr =  7.36E-10,  avg # of iterations =  6.1

     negative rho (up, down):  1.507E-03 0.000E+00

     total cpu time spent up to now is      166.4 secs

     total energy              =    -238.50118782 Ry
     estimated scf accuracy    <       0.00000194 Ry

     iteration #  6     ecut=    70.00 Ry     beta= 0.70
     Davidson diagonalization with overlap
     ethr =  7.36E-10,  avg # of iterations =  2.0

     negative rho (up, down):  1.511E-03 0.000E+00

     total cpu time spent up to now is      167.6 secs

     total energy              =    -238.50118693 Ry
     estimated scf accuracy    <       0.00000138 Ry

     iteration #  7     ecut=    70.00 Ry     beta= 0.70
     Davidson diagonalization with overlap
     ethr =  7.36E-10,  avg # of iterations =  4.3

     negative rho (up, down):  1.510E-03 0.000E+00

     total cpu time spent up to now is      169.5 secs

     total energy              =    -238.50118740 Ry
     estimated scf accuracy    <       0.00000022 Ry

     iteration #  8     ecut=    70.00 Ry     beta= 0.70
     Davidson diagonalization with overlap
     ethr =  7.36E-10,  avg # of iterations =  2.0

     negative rho (up, down):  1.509E-03 0.000E+00

     total cpu time spent up to now is      170.8 secs

     total energy              =    -238.50118738 Ry
     estimated scf accuracy    <       0.00000006 Ry

     iteration #  9     ecut=    70.00 Ry     beta= 0.70
     Davidson diagonalization with overlap
     ethr =  2.33E-10,  avg # of iterations =  3.5

     negative rho (up, down):  1.509E-03 0.000E+00

     total cpu time spent up to now is      172.4 secs

     total energy              =    -238.50118740 Ry
     estimated scf accuracy    <          6.3E-09 Ry

     iteration # 10     ecut=    70.00 Ry     beta= 0.70
     Davidson diagonalization with overlap
     ethr =  2.64E-11,  avg # of iterations =  2.0

     negative rho (up, down):  1.509E-03 0.000E+00

     total cpu time spent up to now is      173.6 secs

     total energy              =    -238.50118740 Ry
     estimated scf accuracy    <          7.7E-10 Ry

     iteration # 11     ecut=    70.00 Ry     beta= 0.70
     Davidson diagonalization with overlap
     ethr =  3.20E-12,  avg # of iterations =  2.8

     negative rho (up, down):  1.510E-03 0.000E+00

     total cpu time spent up to now is      175.0 secs

     total energy              =    -238.50118740 Ry
     estimated scf accuracy    <          2.5E-10 Ry

     iteration # 12     ecut=    70.00 Ry     beta= 0.70
     Davidson diagonalization with overlap
     ethr =  1.02E-12,  avg # of iterations =  3.6

     negative rho (up, down):  1.509E-03 0.000E+00

     total cpu time spent up to now is      176.6 secs

     End of self-consistent calculation

     Number of k-points >= 100: set verbosity='high' to print the bands.

     the Fermi energy is    13.4184 ev

!    total energy              =    -238.50118740 Ry
     estimated scf accuracy    <          3.7E-11 Ry
     smearing contrib. (-TS)   =       0.00013429 Ry
     internal energy E=F+TS    =    -238.50132169 Ry

     The total energy is F=E-TS. E is the sum of the following terms:
     one-electron contribution =     -81.04120894 Ry
     hartree contribution      =      48.50606736 Ry
     xc contribution           =     -36.07474714 Ry
     ewald contribution        =    -169.89143297 Ry

     convergence has been achieved in  12 iterations


     Computing stress (Cartesian axis) and pressure


     negative rho (up, down):  1.509E-03 0.000E+00
          total   stress  (Ry/bohr**3)                   (kbar)     P=        0.19
   0.00000224   0.00000000   0.00000000            0.33        0.00        0.00
  -0.00000000   0.00000227   0.00000000           -0.00        0.33        0.00
   0.00000000   0.00000000  -0.00000053            0.00        0.00       -0.08

     Energy error            =      2.7E-05 Ry
     Gradient error          =      0.0E+00 Ry/Bohr
     Cell gradient error     =      3.3E-01 kbar

     bfgs converged in   7 scf cycles and   6 bfgs steps
     (criteria: energy <  1.0E-04 Ry, force <  1.0E-03 Ry/Bohr, cell <  5.0E-01 kbar)

     End of BFGS Geometry Optimization

     Final enthalpy           =    -238.5011873974 Ry

     File ./out/Ti_hcp.bfgs deleted, as requested
Begin final coordinates
     new unit-cell volume =    234.63056 a.u.^3 (    34.76866 Ang^3 )
     density =      4.57222 g/cm^3

CELL_PARAMETERS (angstrom)
   1.468456204  -2.543428206   0.000000000
   1.468456204   2.543428206   0.000000000
   0.000000000   0.000000000   4.654547768

ATOMIC_POSITIONS (crystal)
Ti            0.0000000000        0.0000000000        0.0000000000    0   0   0
Ti            0.6666666667        0.3333333333        0.5000000000    0   0   0
End final coordinates



     Writing config-only to output data dir ./out/Ti_hcp.save/

     Final scf calculation at the relaxed structure.
     The G-vectors are recalculated for the final unit cell
     Results may differ from those at the preceding step.
 
     G-vector sticks info
     --------------------
     sticks:   dense  smooth     PW     G-vecs:    dense   smooth      PW
     Sum        1495     595    199                73377    18629    3453
 
     Using Slab Decomposition
 


     bravais-lattice index     =            0
     lattice parameter (alat)  =       4.7040  a.u.
     unit-cell volume          =     234.6306 (a.u.)^3
     number of atoms/cell      =            2
     number of atomic types    =            1
     number of electrons       =        24.00
     number of Kohn-Sham states=           16
     kinetic-energy cutoff     =      70.0000  Ry
     charge density cutoff     =     700.0000  Ry
     scf convergence threshold =      1.0E-10
     mixing beta               =       0.7000
     number of iterations used =            8  plain     mixing
     press convergence thresh. =      5.0E-01
     Exchange-correlation=  SLA  PW   PBX  PBC
                           (   1   4   3   4   0   0   0)

     celldm(1)=   4.703973  celldm(2)=   0.000000  celldm(3)=   0.000000
     celldm(4)=   0.000000  celldm(5)=   0.000000  celldm(6)=   0.000000

     crystal axes: (cart. coord. in units of alat)
               a(1) = (   0.589923  -1.021771   0.000000 )  
               a(2) = (   0.589923   1.021771   0.000000 )  
               a(3) = (   0.000000   0.000000   1.869871 )  

     reciprocal axes: (cart. coord. in units 2 pi/alat)
               b(1) = (  0.847569 -0.489346  0.000000 )  
               b(2) = (  0.847569  0.489346  0.000000 )  
               b(3) = (  0.000000  0.000000  0.534796 )  


     PseudoPot. # 1 for Ti read from file:
     /home/k0750/k075000/PSPOT/ti_pbe_v1.4.uspp.F.UPF
     MD5 check sum: 88a00a6731bd790ddea75d31a80cb452
     Pseudo is Ultrasoft + core correction, Zval = 12.0
     Generated by new atomic code, or converted to UPF format
     Using radial grid of  851 points,  6 beta functions with: 
                l(1) =   0
                l(2) =   0
                l(3) =   1
                l(4) =   1
                l(5) =   2
                l(6) =   2
     Q(r) pseudized with  6 coefficients,  rinner =    1.000   1.000   1.000
                                                       1.000   1.000

     atomic species   valence    mass     pseudopotential
        Ti            12.00    47.86700     Ti( 1.00)

      8 Sym. Ops., with inversion, found ( 4 have fractional translation)



   Cartesian axes

     site n.     atom                  positions (alat units)
         1           Ti  tau(   1) = (   0.0000000   0.0000000   0.0000000  )
         2           Ti  tau(   2) = (   0.5899227  -0.3405903   0.9349353  )

     number of k points=   215  Methfessel-Paxton smearing, width (Ry)=  0.0100

     Number of k-points >= 100: set verbosity='high' to print them.

     Dense  grid:    73377 G-vectors     FFT dimensions: (  48,  48,  80)

     Smooth grid:    18629 G-vectors     FFT dimensions: (  30,  30,  48)

     Estimated max dynamical RAM per process >      99.37 MB

     Estimated total dynamical RAM >     588.10 MB

     Check: negative core charge=   -0.000005

     Initial potential from superposition of free atoms

     starting charge      21.9999, renormalised to      24.0000

     negative rho (up, down):  2.837E-03 0.000E+00
     Starting wfcs are   20 randomized atomic wfcs

     total cpu time spent up to now is      179.3 secs

     Self-consistent Calculation

     iteration #  1     ecut=    70.00 Ry     beta= 0.70
     Davidson diagonalization with overlap
     c_bands:  1 eigenvalues not converged
     c_bands:  1 eigenvalues not converged
     c_bands:  1 eigenvalues not converged
     c_bands:  2 eigenvalues not converged
     c_bands:  2 eigenvalues not converged
     c_bands:  1 eigenvalues not converged
     c_bands:  1 eigenvalues not converged
     c_bands:  1 eigenvalues not converged
     c_bands:  1 eigenvalues not converged
     c_bands:  1 eigenvalues not converged
     c_bands:  1 eigenvalues not converged
     ethr =  1.00E-06,  avg # of iterations = 16.4

     negative rho (up, down):  3.946E-03 0.000E+00

     total cpu time spent up to now is      184.7 secs

     total energy              =    -237.97012629 Ry
     estimated scf accuracy    <       1.33629145 Ry

     iteration #  2     ecut=    70.00 Ry     beta= 0.70
     Davidson diagonalization with overlap
     ethr =  5.57E-03,  avg # of iterations =  3.2

     negative rho (up, down):  1.879E-03 0.000E+00

     total cpu time spent up to now is      186.7 secs

     total energy              =    -238.34620139 Ry
     estimated scf accuracy    <       0.65104310 Ry

     iteration #  3     ecut=    70.00 Ry     beta= 0.70
     Davidson diagonalization with overlap
     ethr =  2.71E-03,  avg # of iterations =  2.2

     negative rho (up, down):  1.595E-03 0.000E+00

     total cpu time spent up to now is      188.3 secs

     total energy              =    -238.49825221 Ry
     estimated scf accuracy    <       0.00059973 Ry

     iteration #  4     ecut=    70.00 Ry     beta= 0.70
     Davidson diagonalization with overlap
     c_bands:  1 eigenvalues not converged
     ethr =  2.50E-06,  avg # of iterations =  6.8

     negative rho (up, down):  1.609E-03 0.000E+00

     total cpu time spent up to now is      191.2 secs

     total energy              =    -238.50094610 Ry
     estimated scf accuracy    <       0.00331465 Ry

     iteration #  5     ecut=    70.00 Ry     beta= 0.70
     Davidson diagonalization with overlap
     c_bands:  1 eigenvalues not converged
     ethr =  2.50E-06,  avg # of iterations =  4.2

     negative rho (up, down):  1.637E-03 0.000E+00

     total cpu time spent up to now is      193.4 secs

     total energy              =    -238.50140024 Ry
     estimated scf accuracy    <       0.00009486 Ry

     iteration #  6     ecut=    70.00 Ry     beta= 0.70
     Davidson diagonalization with overlap
     ethr =  3.95E-07,  avg # of iterations =  2.9

     negative rho (up, down):  1.643E-03 0.000E+00

     total cpu time spent up to now is      195.0 secs

     total energy              =    -238.50141016 Ry
     estimated scf accuracy    <       0.00001000 Ry

     iteration #  7     ecut=    70.00 Ry     beta= 0.70
     Davidson diagonalization with overlap
     ethr =  4.16E-08,  avg # of iterations =  4.0

     negative rho (up, down):  1.644E-03 0.000E+00

     total cpu time spent up to now is      196.9 secs

     total energy              =    -238.50141454 Ry
     estimated scf accuracy    <       0.00000057 Ry

     iteration #  8     ecut=    70.00 Ry     beta= 0.70
     Davidson diagonalization with overlap
     ethr =  2.38E-09,  avg # of iterations =  3.1

     negative rho (up, down):  1.643E-03 0.000E+00

     total cpu time spent up to now is      198.6 secs

     total energy              =    -238.50141455 Ry
     estimated scf accuracy    <       0.00000016 Ry

     iteration #  9     ecut=    70.00 Ry     beta= 0.70
     Davidson diagonalization with overlap
     ethr =  6.77E-10,  avg # of iterations =  2.8

     negative rho (up, down):  1.643E-03 0.000E+00

     total cpu time spent up to now is      200.2 secs

     total energy              =    -238.50141456 Ry
     estimated scf accuracy    <       0.00000001 Ry

     iteration # 10     ecut=    70.00 Ry     beta= 0.70
     Davidson diagonalization with overlap
     ethr =  5.25E-11,  avg # of iterations =  3.9

     negative rho (up, down):  1.643E-03 0.000E+00

     total cpu time spent up to now is      202.1 secs

     End of self-consistent calculation

     Number of k-points >= 100: set verbosity='high' to print the bands.

     the Fermi energy is    13.4183 ev

!    total energy              =    -238.50141457 Ry
     estimated scf accuracy    <          2.5E-11 Ry
     smearing contrib. (-TS)   =       0.00013426 Ry
     internal energy E=F+TS    =    -238.50154883 Ry

     The total energy is F=E-TS. E is the sum of the following terms:
     one-electron contribution =     -81.04183876 Ry
     hartree contribution      =      48.50635501 Ry
     xc contribution           =     -36.07463211 Ry
     ewald contribution        =    -169.89143297 Ry

     convergence has been achieved in  10 iterations


     Computing stress (Cartesian axis) and pressure


     negative rho (up, down):  1.643E-03 0.000E+00
          total   stress  (Ry/bohr**3)                   (kbar)     P=       -0.78
  -0.00000432   0.00000000   0.00000000           -0.64        0.00        0.00
  -0.00000000  -0.00000428   0.00000000           -0.00       -0.63        0.00
   0.00000000   0.00000000  -0.00000732            0.00        0.00       -1.08


     Writing all to output data dir ./out/Ti_hcp.save/
 
     init_run     :      2.90s CPU      3.24s WALL (       2 calls)
     electrons    :    183.72s CPU    186.74s WALL (       8 calls)
     update_pot   :      3.63s CPU      3.64s WALL (       6 calls)
     stress       :      8.26s CPU      8.31s WALL (       8 calls)

     Called by init_run:
     wfcinit      :      1.05s CPU      1.08s WALL (       2 calls)
     potinit      :      0.51s CPU      0.53s WALL (       2 calls)
     hinit0       :      1.26s CPU      1.53s WALL (       2 calls)

     Called by electrons:
     c_bands      :    153.18s CPU    154.91s WALL (     114 calls)
     sum_band     :     23.87s CPU     24.26s WALL (     114 calls)
     v_of_rho     :      4.45s CPU      4.49s WALL (     122 calls)
     newd         :      1.87s CPU      2.08s WALL (     122 calls)
     mix_rho      :      0.43s CPU      0.51s WALL (     114 calls)

     Called by c_bands:
     init_us_2    :      1.79s CPU      1.82s WALL (    7378 calls)
     init_us_2:cp :      1.78s CPU      1.81s WALL (    7378 calls)
     cegterg      :    123.13s CPU    124.02s WALL (    3534 calls)

     Called by *egterg:
     cdiaghg      :      2.80s CPU      2.90s WALL (   14538 calls)
     h_psi        :    108.46s CPU    109.16s WALL (   14786 calls)
     s_psi        :      2.45s CPU      2.47s WALL (   14786 calls)
     g_psi        :      0.55s CPU      0.55s WALL (   11190 calls)

     Called by h_psi:
     h_psi:calbec :      2.35s CPU      2.36s WALL (   14786 calls)
     vloc_psi     :    103.42s CPU    104.08s WALL (   14786 calls)
     add_vuspsi   :      2.46s CPU      2.48s WALL (   14786 calls)

     General routines
     calbec       :      3.11s CPU      3.14s WALL (   18568 calls)
     fft          :      2.10s CPU      2.30s WALL (    1688 calls)
     ffts         :      0.08s CPU      0.08s WALL (     236 calls)
     fftw         :    114.87s CPU    115.60s WALL (  367884 calls)
     interpolate  :      0.21s CPU      0.21s WALL (     122 calls)
 
     Parallel routines
 
     PWSCF        :   3m18.93s CPU   3m23.70s WALL

 
   This run was terminated on:  17:46:32  10Jun2026            

=------------------------------------------------------------------------------=
   JOB DONE.
=------------------------------------------------------------------------------=
