
     Program PWSCF v.7.1 starts on 11Jun2026 at  3:34:45 

     This program is part of the open-source Quantum ESPRESSO suite
     for quantum simulation of materials; please cite
         "P. Giannozzi et al., J. Phys.:Condens. Matter 21 395502 (2009);
         "P. Giannozzi et al., J. Phys.:Condens. Matter 29 465901 (2017);
         "P. Giannozzi et al., J. Chem. Phys. 152 154105 (2020);
          URL http://www.quantum-espresso.org", 
     in publications or presentations arising from this work. More details at
     http://www.quantum-espresso.org/quote

     Parallel version (MPI & OpenMP), running on       7 processor cores
     Number of MPI processes:                 7
     Threads/MPI process:                     1

     MPI processes distributed on     7 nodes
     223828 MiB available memory on the printing compute node when the environment starts
 
     Waiting for input...
     Reading input from standard input
Warning: card &CELL ignored
Warning: card / ignored
Warning: card &FCP ignored
Warning: card / ignored
Warning: card &RISM ignored
Warning: card / ignored

     Current dimensions of program PWSCF are:
     Max number of different atomic species (ntypx) = 10
     Max number of k-points (npk) =  40000
     Max angular momentum in pseudopotentials (lmaxx) =  4
     Message from routine setup:
     using ibrav=0 with symmetry is DISCOURAGED, use correct ibrav instead
 
     R & G space division:  proc/nbgrp/npool/nimage =       7
     Subspace diagonalization in iterative solution of the eigenvalue problem:
     a serial algorithm will be used

 
     Parallelization info
     --------------------
     sticks:   dense  smooth     PW     G-vecs:    dense   smooth      PW
     Min          85      34     12                 3565      910     176
     Max          85      35     13                 3571      917     181
     Sum         595     241     85                24969     6387    1247
 
     Using Slab Decomposition
 


     bravais-lattice index     =            0
     lattice parameter (alat)  =       4.6633  a.u.
     unit-cell volume          =     185.0642 (a.u.)^3
     number of atoms/cell      =            4
     number of atomic types    =            1
     number of electrons       =        16.00
     number of Kohn-Sham states=           12
     kinetic-energy cutoff     =      40.0000  Ry
     charge density cutoff     =     400.0000  Ry
     scf convergence threshold =      1.0E-08
     mixing beta               =       0.3000
     number of iterations used =            8  plain     mixing
     Exchange-correlation= SLA  PW   PBE  PBE
                           (   1   4   3   4   0   0   0)

     celldm(1)=   4.663315  celldm(2)=   0.000000  celldm(3)=   0.000000
     celldm(4)=   0.000000  celldm(5)=   0.000000  celldm(6)=   0.000000

     crystal axes: (cart. coord. in units of alat)
               a(1) = (   1.000000   0.000000   0.000000 )  
               a(2) = (  -0.500000   0.866025   0.000000 )  
               a(3) = (   0.000000   0.000000   2.107208 )  

     reciprocal axes: (cart. coord. in units 2 pi/alat)
               b(1) = (  1.000000  0.577350  0.000000 )  
               b(2) = (  0.000000  1.154701  0.000000 )  
               b(3) = (  0.000000  0.000000  0.474562 )  


     PseudoPot. # 1 for C  read from file:
     /home/k0750/k075000/PSPOT/c_pbe_v1.2.uspp.F.UPF
     MD5 check sum: d1aef80898a10debaa0f26306b886e00
     Pseudo is Ultrasoft + core correction, Zval =  4.0
     Generated by new atomic code, or converted to UPF format
     Using radial grid of  721 points,  4 beta functions with: 
                l(1) =   0
                l(2) =   0
                l(3) =   1
                l(4) =   1
     Q(r) pseudized with  8 coefficients,  rinner =    1.100   1.100   1.100


     atomic species   valence    mass     pseudopotential
        C              4.00    12.01100     C ( 1.00)

      8 Sym. Ops., with inversion, found ( 4 have fractional translation)



   Cartesian axes

     site n.     atom                  positions (alat units)
         1           C   tau(   1) = (   0.0000000   0.0000000   1.5804062  )
         2           C   tau(   2) = (   0.0000000   0.0000000   0.5268021  )
         3           C   tau(   3) = (  -0.0000050   0.5773532   1.5804062  )
         4           C   tau(   4) = (   0.5000050   0.2886722   0.5268021  )

     number of k points=   215  Marzari-Vanderbilt smearing, width (Ry)=  0.0100

     Number of k-points >= 100: set verbosity='high' to print them.

     Dense  grid:    24969 G-vectors     FFT dimensions: (  30,  30,  64)

     Smooth grid:     6387 G-vectors     FFT dimensions: (  20,  20,  40)

     Estimated max dynamical RAM per process >       9.98 MB

     Estimated total dynamical RAM >      69.85 MB

     Initial potential from superposition of free atoms

     starting charge      15.9998, renormalised to      16.0000
     Starting wfcs are   16 randomized atomic wfcs

     total cpu time spent up to now is        0.5 secs

     Self-consistent Calculation

     iteration #  1     ecut=    40.00 Ry     beta= 0.30
     Davidson diagonalization with overlap
     ethr =  1.00E-02,  avg # of iterations =  2.6

     total cpu time spent up to now is        1.5 secs

     total energy              =     -45.94410241 Ry
     estimated scf accuracy    <       0.32612033 Ry

     iteration #  2     ecut=    40.00 Ry     beta= 0.30
     Davidson diagonalization with overlap
     ethr =  2.04E-03,  avg # of iterations =  1.2

     total cpu time spent up to now is        2.2 secs

     total energy              =     -45.88361678 Ry
     estimated scf accuracy    <       0.12229478 Ry

     iteration #  3     ecut=    40.00 Ry     beta= 0.30
     Davidson diagonalization with overlap
     ethr =  7.64E-04,  avg # of iterations =  2.5

     total cpu time spent up to now is        3.1 secs

     total energy              =     -45.90054621 Ry
     estimated scf accuracy    <       0.00163217 Ry

     iteration #  4     ecut=    40.00 Ry     beta= 0.30
     Davidson diagonalization with overlap
     c_bands:  1 eigenvalues not converged
     c_bands:  1 eigenvalues not converged
     ethr =  1.02E-05,  avg # of iterations =  5.6

     total cpu time spent up to now is        4.3 secs

     total energy              =     -45.90070946 Ry
     estimated scf accuracy    <       0.00059213 Ry

     iteration #  5     ecut=    40.00 Ry     beta= 0.30
     Davidson diagonalization with overlap
     ethr =  3.70E-06,  avg # of iterations =  2.3

     total cpu time spent up to now is        5.1 secs

     total energy              =     -45.90076704 Ry
     estimated scf accuracy    <       0.00002265 Ry

     iteration #  6     ecut=    40.00 Ry     beta= 0.30
     Davidson diagonalization with overlap
     ethr =  1.42E-07,  avg # of iterations =  2.0

     total cpu time spent up to now is        5.8 secs

     total energy              =     -45.90076905 Ry
     estimated scf accuracy    <       0.00000200 Ry

     iteration #  7     ecut=    40.00 Ry     beta= 0.30
     Davidson diagonalization with overlap
     ethr =  1.25E-08,  avg # of iterations =  1.5

     total cpu time spent up to now is        6.5 secs

     total energy              =     -45.90076960 Ry
     estimated scf accuracy    <       0.00000036 Ry

     iteration #  8     ecut=    40.00 Ry     beta= 0.30
     Davidson diagonalization with overlap
     ethr =  2.25E-09,  avg # of iterations =  2.0

     total cpu time spent up to now is        7.3 secs

     total energy              =     -45.90076973 Ry
     estimated scf accuracy    <       0.00000003 Ry

     iteration #  9     ecut=    40.00 Ry     beta= 0.30
     Davidson diagonalization with overlap
     ethr =  1.97E-10,  avg # of iterations =  1.4

     total cpu time spent up to now is        8.0 secs

     End of self-consistent calculation

     Number of k-points >= 100: set verbosity='high' to print the bands.

     the Fermi energy is    10.0927 ev

!    total energy              =     -45.90076981 Ry
     estimated scf accuracy    <          2.2E-09 Ry
     smearing contrib. (-TS)   =       0.00000249 Ry
     internal energy E=F+TS    =     -45.90077230 Ry

     The total energy is F=E-TS. E is the sum of the following terms:
     one-electron contribution =       5.70802711 Ry
     hartree contribution      =       7.07017992 Ry
     xc contribution           =     -14.63795944 Ry
     ewald contribution        =     -44.04101990 Ry

     convergence has been achieved in   9 iterations

     Forces acting on atoms (cartesian axes, Ry/au):

     atom    1 type  1   force =    -0.00002525    0.00001458    0.00000000
     atom    2 type  1   force =     0.00002525   -0.00001458    0.00000000
     atom    3 type  1   force =     0.00002571   -0.00001484    0.00000000
     atom    4 type  1   force =    -0.00002571    0.00001484    0.00000000

     Total force =     0.000059     Total SCF correction =     0.000000


     Computing stress (Cartesian axis) and pressure

          total   stress  (Ry/bohr**3)                   (kbar)     P=      106.80
  -0.00024149  -0.00000012   0.00000000          -35.52       -0.02        0.00
  -0.00000012  -0.00024162   0.00000000           -0.02      -35.54        0.00
   0.00000000   0.00000000   0.00266119            0.00        0.00      391.47


     Writing all to output data dir ./tmp/graphite_d_2p60000.save/
 
     init_run     :      0.36s CPU      0.43s WALL (       1 calls)
     electrons    :      6.98s CPU      7.66s WALL (       1 calls)
     forces       :      0.08s CPU      0.08s WALL (       1 calls)
     stress       :      0.14s CPU      0.14s WALL (       1 calls)

     Called by init_run:
     wfcinit      :      0.31s CPU      0.32s WALL (       1 calls)
     potinit      :      0.01s CPU      0.03s WALL (       1 calls)
     hinit0       :      0.03s CPU      0.06s WALL (       1 calls)

     Called by electrons:
     c_bands      :      5.95s CPU      6.43s WALL (       9 calls)
     sum_band     :      0.96s CPU      1.02s WALL (       9 calls)
     v_of_rho     :      0.04s CPU      0.07s WALL (      10 calls)
     newd         :      0.01s CPU      0.02s WALL (      10 calls)
     mix_rho      :      0.01s CPU      0.01s WALL (       9 calls)

     Called by c_bands:
     init_us_2    :      0.07s CPU      0.08s WALL (    4515 calls)
     init_us_2:cp :      0.07s CPU      0.07s WALL (    4515 calls)
     cegterg      :      5.62s CPU      5.89s WALL (    1935 calls)

     Called by *egterg:
     cdiaghg      :      0.80s CPU      0.83s WALL (    6491 calls)
     h_psi        :      4.25s CPU      4.47s WALL (    6706 calls)
     s_psi        :      0.08s CPU      0.08s WALL (    6706 calls)
     g_psi        :      0.02s CPU      0.02s WALL (    4556 calls)

     Called by h_psi:
     h_psi:calbec :      0.29s CPU      0.30s WALL (    6706 calls)
     vloc_psi     :      3.84s CPU      4.05s WALL (    6706 calls)
     add_vuspsi   :      0.09s CPU      0.09s WALL (    6706 calls)

     General routines
     calbec       :      0.43s CPU      0.44s WALL (    9716 calls)
     fft          :      0.05s CPU      0.11s WALL (     153 calls)
     ffts         :      0.00s CPU      0.01s WALL (      19 calls)
     fftw         :      4.26s CPU      4.48s WALL (  145806 calls)
     interpolate  :      0.00s CPU      0.01s WALL (      10 calls)
 
     Parallel routines
 
     PWSCF        :      7.91s CPU     11.01s WALL

 
   This run was terminated on:   3:34:56  11Jun2026            

=------------------------------------------------------------------------------=
   JOB DONE.
=------------------------------------------------------------------------------=
