
     Program PWSCF v.7.4.1 starts on 10Jul2025 at 18:18:13 

     This program is part of the open-source Quantum ESPRESSO suite
     for quantum simulation of materials; please cite
         "P. Giannozzi et al., J. Phys.:Condens. Matter 21 395502 (2009);
         "P. Giannozzi et al., J. Phys.:Condens. Matter 29 465901 (2017);
         "P. Giannozzi et al., J. Chem. Phys. 152 154105 (2020);
          URL http://www.quantum-espresso.org", 
     in publications or presentations arising from this work. More details at
     http://www.quantum-espresso.org/quote

     Parallel version (MPI & OpenMP), running on      80 processor cores
     Number of MPI processes:                80
     Threads/MPI process:                     1

     MPI processes distributed on     1 nodes
     3057897 MiB available memory on the printing compute node when the environment starts
 
     Waiting for input...
     Reading input from standard input

     Current dimensions of program PWSCF are:
     Max number of different atomic species (ntypx) = 10
     Max number of k-points (npk) =  40000
     Max angular momentum in pseudopotentials (lmaxx) =  4
     Found identity + ( -0.5000 -0.5000 -0.5000) symmetry
     This is a supercell, fractional translations are disabled
     Message from routine setup:
     using ibrav=0 with symmetry is DISCOURAGED, use correct ibrav instead
 
     K-points division:     npool     =      20
     R & G space division:  proc/nbgrp/npool/nimage =       4
     Subspace diagonalization in iterative solution of the eigenvalue problem:
     a serial algorithm will be used

 
     Parallelization info
     --------------------
     sticks:   dense  smooth     PW     G-vecs:    dense   smooth      PW
     Min         406     165     53                12389     3139     551
     Max         409     167     54                12390     3140     552
     Sum        1633     665    213                49557    12557    2205
 
     Using Slab Decomposition
 


     bravais-lattice index     =            0
     lattice parameter (alat)  =       5.4160  a.u.
     unit-cell volume          =     158.8639 (a.u.)^3
     number of atoms/cell      =            2
     number of atomic types    =            1
     number of electrons       =        32.00
     number of Kohn-Sham states=           20
     kinetic-energy cutoff     =      70.0000  Ry
     charge density cutoff     =     700.0000  Ry
     scf convergence threshold =      1.0E-08
     mixing beta               =       0.7000
     number of iterations used =            8  plain     mixing
     energy convergence thresh.=      1.0E-04
     force convergence thresh. =      1.0E-03
     press convergence thresh. =      5.0E-01
     Exchange-correlation=  SLA  PW   PBX  PBC
                           (   1   4   3   4   0   0   0)
     nstep                     =           50


     celldm(1)=   5.415955  celldm(2)=   0.000000  celldm(3)=   0.000000
     celldm(4)=   0.000000  celldm(5)=   0.000000  celldm(6)=   0.000000

     crystal axes: (cart. coord. in units of alat)
               a(1) = (   1.000000   0.000000   0.000000 )  
               a(2) = (   0.000000   1.000000   0.000000 )  
               a(3) = (   0.000000   0.000000   1.000000 )  

     reciprocal axes: (cart. coord. in units 2 pi/alat)
               b(1) = (  1.000000  0.000000  0.000000 )  
               b(2) = (  0.000000  1.000000  0.000000 )  
               b(3) = (  0.000000  0.000000  1.000000 )  


     PseudoPot. # 1 for Fe read from file:
     /home/m0049/m004905/PSPOT/fe_pbe_v1.5.uspp.F.UPF
     MD5 check sum: a130daea23fe5165f5d574ae7f82ed95
     Pseudo is Ultrasoft + core correction, Zval = 16.0
     Generated by new atomic code, or converted to UPF format
     Using radial grid of  861 points,  6 beta functions with: 
                l(1) =   0
                l(2) =   0
                l(3) =   1
                l(4) =   1
                l(5) =   2
                l(6) =   2
     Q(r) pseudized with  8 coefficients,  rinner =    1.000   1.000   1.000
                                                       1.000   1.000

     atomic species   valence    mass     pseudopotential
     Fe               16.00    55.84500     Fe( 1.00)

     Starting magnetic structure 
     atomic species   magnetization
     Fe              0.125

     48 Sym. Ops., with inversion, found



   Cartesian axes

     site n.     atom                  positions (alat units)
         1        Fe     tau(   1) = (   0.0000000   0.0000000   0.0000000  )
         2        Fe     tau(   2) = (   0.5000000   0.5000000   0.5000000  )

     number of k points=    84  Methfessel-Paxton smearing, width (Ry)=  0.0100
                       cart. coord. in units 2pi/alat
        k(    1) = (   0.0000000   0.0000000   0.0000000), wk =   0.0005787
        k(    2) = (   0.0000000   0.0000000   0.0833333), wk =   0.0034722
        k(    3) = (   0.0000000   0.0000000   0.1666667), wk =   0.0034722
        k(    4) = (   0.0000000   0.0000000   0.2500000), wk =   0.0034722
        k(    5) = (   0.0000000   0.0000000   0.3333333), wk =   0.0034722
        k(    6) = (   0.0000000   0.0000000   0.4166667), wk =   0.0034722
        k(    7) = (   0.0000000   0.0000000  -0.5000000), wk =   0.0017361
        k(    8) = (   0.0000000   0.0833333   0.0833333), wk =   0.0069444
        k(    9) = (   0.0000000   0.0833333   0.1666667), wk =   0.0138889
        k(   10) = (   0.0000000   0.0833333   0.2500000), wk =   0.0138889
        k(   11) = (   0.0000000   0.0833333   0.3333333), wk =   0.0138889
        k(   12) = (   0.0000000   0.0833333   0.4166667), wk =   0.0138889
        k(   13) = (   0.0000000   0.0833333  -0.5000000), wk =   0.0069444
        k(   14) = (   0.0000000   0.1666667   0.1666667), wk =   0.0069444
        k(   15) = (   0.0000000   0.1666667   0.2500000), wk =   0.0138889
        k(   16) = (   0.0000000   0.1666667   0.3333333), wk =   0.0138889
        k(   17) = (   0.0000000   0.1666667   0.4166667), wk =   0.0138889
        k(   18) = (   0.0000000   0.1666667  -0.5000000), wk =   0.0069444
        k(   19) = (   0.0000000   0.2500000   0.2500000), wk =   0.0069444
        k(   20) = (   0.0000000   0.2500000   0.3333333), wk =   0.0138889
        k(   21) = (   0.0000000   0.2500000   0.4166667), wk =   0.0138889
        k(   22) = (   0.0000000   0.2500000  -0.5000000), wk =   0.0069444
        k(   23) = (   0.0000000   0.3333333   0.3333333), wk =   0.0069444
        k(   24) = (   0.0000000   0.3333333   0.4166667), wk =   0.0138889
        k(   25) = (   0.0000000   0.3333333  -0.5000000), wk =   0.0069444
        k(   26) = (   0.0000000   0.4166667   0.4166667), wk =   0.0069444
        k(   27) = (   0.0000000   0.4166667  -0.5000000), wk =   0.0069444
        k(   28) = (   0.0000000  -0.5000000  -0.5000000), wk =   0.0017361
        k(   29) = (   0.0833333   0.0833333   0.0833333), wk =   0.0046296
        k(   30) = (   0.0833333   0.0833333   0.1666667), wk =   0.0138889
        k(   31) = (   0.0833333   0.0833333   0.2500000), wk =   0.0138889
        k(   32) = (   0.0833333   0.0833333   0.3333333), wk =   0.0138889
        k(   33) = (   0.0833333   0.0833333   0.4166667), wk =   0.0138889
        k(   34) = (   0.0833333   0.0833333  -0.5000000), wk =   0.0069444
        k(   35) = (   0.0833333   0.1666667   0.1666667), wk =   0.0138889
        k(   36) = (   0.0833333   0.1666667   0.2500000), wk =   0.0277778
        k(   37) = (   0.0833333   0.1666667   0.3333333), wk =   0.0277778
        k(   38) = (   0.0833333   0.1666667   0.4166667), wk =   0.0277778
        k(   39) = (   0.0833333   0.1666667  -0.5000000), wk =   0.0138889
        k(   40) = (   0.0833333   0.2500000   0.2500000), wk =   0.0138889
        k(   41) = (   0.0833333   0.2500000   0.3333333), wk =   0.0277778
        k(   42) = (   0.0833333   0.2500000   0.4166667), wk =   0.0277778
        k(   43) = (   0.0833333   0.2500000  -0.5000000), wk =   0.0138889
        k(   44) = (   0.0833333   0.3333333   0.3333333), wk =   0.0138889
        k(   45) = (   0.0833333   0.3333333   0.4166667), wk =   0.0277778
        k(   46) = (   0.0833333   0.3333333  -0.5000000), wk =   0.0138889
        k(   47) = (   0.0833333   0.4166667   0.4166667), wk =   0.0138889
        k(   48) = (   0.0833333   0.4166667  -0.5000000), wk =   0.0138889
        k(   49) = (   0.0833333  -0.5000000  -0.5000000), wk =   0.0034722
        k(   50) = (   0.1666667   0.1666667   0.1666667), wk =   0.0046296
        k(   51) = (   0.1666667   0.1666667   0.2500000), wk =   0.0138889
        k(   52) = (   0.1666667   0.1666667   0.3333333), wk =   0.0138889
        k(   53) = (   0.1666667   0.1666667   0.4166667), wk =   0.0138889
        k(   54) = (   0.1666667   0.1666667  -0.5000000), wk =   0.0069444
        k(   55) = (   0.1666667   0.2500000   0.2500000), wk =   0.0138889
        k(   56) = (   0.1666667   0.2500000   0.3333333), wk =   0.0277778
        k(   57) = (   0.1666667   0.2500000   0.4166667), wk =   0.0277778
        k(   58) = (   0.1666667   0.2500000  -0.5000000), wk =   0.0138889
        k(   59) = (   0.1666667   0.3333333   0.3333333), wk =   0.0138889
        k(   60) = (   0.1666667   0.3333333   0.4166667), wk =   0.0277778
        k(   61) = (   0.1666667   0.3333333  -0.5000000), wk =   0.0138889
        k(   62) = (   0.1666667   0.4166667   0.4166667), wk =   0.0138889
        k(   63) = (   0.1666667   0.4166667  -0.5000000), wk =   0.0138889
        k(   64) = (   0.1666667  -0.5000000  -0.5000000), wk =   0.0034722
        k(   65) = (   0.2500000   0.2500000   0.2500000), wk =   0.0046296
        k(   66) = (   0.2500000   0.2500000   0.3333333), wk =   0.0138889
        k(   67) = (   0.2500000   0.2500000   0.4166667), wk =   0.0138889
        k(   68) = (   0.2500000   0.2500000  -0.5000000), wk =   0.0069444
        k(   69) = (   0.2500000   0.3333333   0.3333333), wk =   0.0138889
        k(   70) = (   0.2500000   0.3333333   0.4166667), wk =   0.0277778
        k(   71) = (   0.2500000   0.3333333  -0.5000000), wk =   0.0138889
        k(   72) = (   0.2500000   0.4166667   0.4166667), wk =   0.0138889
        k(   73) = (   0.2500000   0.4166667  -0.5000000), wk =   0.0138889
        k(   74) = (   0.2500000  -0.5000000  -0.5000000), wk =   0.0034722
        k(   75) = (   0.3333333   0.3333333   0.3333333), wk =   0.0046296
        k(   76) = (   0.3333333   0.3333333   0.4166667), wk =   0.0138889
        k(   77) = (   0.3333333   0.3333333  -0.5000000), wk =   0.0069444
        k(   78) = (   0.3333333   0.4166667   0.4166667), wk =   0.0138889
        k(   79) = (   0.3333333   0.4166667  -0.5000000), wk =   0.0138889
        k(   80) = (   0.3333333  -0.5000000  -0.5000000), wk =   0.0034722
        k(   81) = (   0.4166667   0.4166667   0.4166667), wk =   0.0046296
        k(   82) = (   0.4166667   0.4166667  -0.5000000), wk =   0.0069444
        k(   83) = (   0.4166667  -0.5000000  -0.5000000), wk =   0.0034722
        k(   84) = (  -0.5000000  -0.5000000  -0.5000000), wk =   0.0005787

     Dense  grid:    49557 G-vectors     FFT dimensions: (  45,  45,  45)

     Smooth grid:    12557 G-vectors     FFT dimensions: (  30,  30,  30)

     Estimated max dynamical RAM per process >      19.26 MB

     Estimated total dynamical RAM >       1.06 GB

     Check: negative core charge=   -0.000053
     Generating pointlists ...
     new r_m :   0.3572 (alat units)  1.9348 (a.u.) for type    1

     Initial potential from superposition of free atoms

     starting charge      30.0000, renormalised to      32.0000
     Starting wfcs are   26 randomized atomic wfcs

     total cpu time spent up to now is        7.9 secs

     Self-consistent Calculation

     iteration #  1     ecut=    70.00 Ry     beta= 0.70
     Davidson diagonalization with overlap
     ethr =  1.00E-02,  avg # of iterations =  2.3

     total cpu time spent up to now is        9.0 secs

     total energy              =    -498.22849367 Ry
     estimated scf accuracy    <       4.49173283 Ry

     total magnetization       =     3.33 Bohr mag/cell
     absolute magnetization    =     3.34 Bohr mag/cell

     iteration #  2     ecut=    70.00 Ry     beta= 0.70
     Davidson diagonalization with overlap
     ethr =  1.00E-02,  avg # of iterations =  3.1

     total cpu time spent up to now is       10.2 secs

     total energy              =    -498.52069238 Ry
     estimated scf accuracy    <      12.54416700 Ry

     total magnetization       =     4.02 Bohr mag/cell
     absolute magnetization    =     4.03 Bohr mag/cell

     iteration #  3     ecut=    70.00 Ry     beta= 0.70
     Davidson diagonalization with overlap
     ethr =  1.00E-02,  avg # of iterations =  2.6

     total cpu time spent up to now is       10.3 secs

     total energy              =    -500.68224792 Ry
     estimated scf accuracy    <       0.01475314 Ry

     total magnetization       =     4.09 Bohr mag/cell
     absolute magnetization    =     4.20 Bohr mag/cell

     iteration #  4     ecut=    70.00 Ry     beta= 0.70
     Davidson diagonalization with overlap
     ethr =  4.61E-05,  avg # of iterations =  3.0

     total cpu time spent up to now is       10.5 secs

     total energy              =    -500.68718175 Ry
     estimated scf accuracy    <       0.02113358 Ry

     total magnetization       =     4.15 Bohr mag/cell
     absolute magnetization    =     4.28 Bohr mag/cell

     iteration #  5     ecut=    70.00 Ry     beta= 0.70
     Davidson diagonalization with overlap
     ethr =  4.61E-05,  avg # of iterations =  1.6

     total cpu time spent up to now is       10.6 secs

     total energy              =    -500.68319496 Ry
     estimated scf accuracy    <       0.08949762 Ry

     total magnetization       =     4.17 Bohr mag/cell
     absolute magnetization    =     4.30 Bohr mag/cell

     iteration #  6     ecut=    70.00 Ry     beta= 0.70
     Davidson diagonalization with overlap
     ethr =  4.61E-05,  avg # of iterations =  3.1

     total cpu time spent up to now is       10.8 secs

     total energy              =    -500.69469066 Ry
     estimated scf accuracy    <       0.04926105 Ry

     total magnetization       =     4.55 Bohr mag/cell
     absolute magnetization    =     4.73 Bohr mag/cell

     iteration #  7     ecut=    70.00 Ry     beta= 0.70
     Davidson diagonalization with overlap
     ethr =  4.61E-05,  avg # of iterations =  2.0

     total cpu time spent up to now is       10.9 secs

     total energy              =    -500.69403294 Ry
     estimated scf accuracy    <       0.01538652 Ry

     total magnetization       =     4.56 Bohr mag/cell
     absolute magnetization    =     4.78 Bohr mag/cell

     iteration #  8     ecut=    70.00 Ry     beta= 0.70
     Davidson diagonalization with overlap
     ethr =  4.61E-05,  avg # of iterations =  1.5

     total cpu time spent up to now is       11.1 secs

     total energy              =    -500.69311820 Ry
     estimated scf accuracy    <       0.00381753 Ry

     total magnetization       =     4.57 Bohr mag/cell
     absolute magnetization    =     4.81 Bohr mag/cell

     iteration #  9     ecut=    70.00 Ry     beta= 0.70
     Davidson diagonalization with overlap
     ethr =  1.19E-05,  avg # of iterations =  2.8

     total cpu time spent up to now is       11.2 secs

     total energy              =    -500.69442324 Ry
     estimated scf accuracy    <       0.00077367 Ry

     total magnetization       =     4.54 Bohr mag/cell
     absolute magnetization    =     4.81 Bohr mag/cell

     iteration # 10     ecut=    70.00 Ry     beta= 0.70
     Davidson diagonalization with overlap
     ethr =  2.42E-06,  avg # of iterations =  1.0

     total cpu time spent up to now is       11.4 secs

     total energy              =    -500.69424627 Ry
     estimated scf accuracy    <       0.00060438 Ry

     total magnetization       =     4.54 Bohr mag/cell
     absolute magnetization    =     4.81 Bohr mag/cell

     iteration # 11     ecut=    70.00 Ry     beta= 0.70
     Davidson diagonalization with overlap
     ethr =  1.89E-06,  avg # of iterations =  2.0

     total cpu time spent up to now is       11.5 secs

     total energy              =    -500.69432723 Ry
     estimated scf accuracy    <       0.00000996 Ry

     total magnetization       =     4.55 Bohr mag/cell
     absolute magnetization    =     4.82 Bohr mag/cell

     iteration # 12     ecut=    70.00 Ry     beta= 0.70
     Davidson diagonalization with overlap
     ethr =  3.11E-08,  avg # of iterations =  2.2

     total cpu time spent up to now is       11.7 secs

     total energy              =    -500.69432508 Ry
     estimated scf accuracy    <       0.00001419 Ry

     total magnetization       =     4.55 Bohr mag/cell
     absolute magnetization    =     4.83 Bohr mag/cell

     iteration # 13     ecut=    70.00 Ry     beta= 0.70
     Davidson diagonalization with overlap
     ethr =  3.11E-08,  avg # of iterations =  2.0

     total cpu time spent up to now is       11.8 secs

     total energy              =    -500.69432564 Ry
     estimated scf accuracy    <       0.00000150 Ry

     total magnetization       =     4.56 Bohr mag/cell
     absolute magnetization    =     4.83 Bohr mag/cell

     iteration # 14     ecut=    70.00 Ry     beta= 0.70
     Davidson diagonalization with overlap
     ethr =  4.68E-09,  avg # of iterations =  2.9

     total cpu time spent up to now is       12.0 secs

     total energy              =    -500.69432620 Ry
     estimated scf accuracy    <       0.00000045 Ry

     total magnetization       =     4.56 Bohr mag/cell
     absolute magnetization    =     4.83 Bohr mag/cell

     iteration # 15     ecut=    70.00 Ry     beta= 0.70
     Davidson diagonalization with overlap
     ethr =  1.42E-09,  avg # of iterations =  1.7

     total cpu time spent up to now is       12.1 secs

     total energy              =    -500.69432622 Ry
     estimated scf accuracy    <       0.00000005 Ry

     total magnetization       =     4.56 Bohr mag/cell
     absolute magnetization    =     4.83 Bohr mag/cell

     iteration # 16     ecut=    70.00 Ry     beta= 0.70
     Davidson diagonalization with overlap
     ethr =  1.46E-10,  avg # of iterations =  2.6
 
     Magnetic moment per site  (integrated on atomic sphere of radius R)
     atom   1 (R=0.357)  charge= 14.4183  magn=  2.3381
     atom   2 (R=0.357)  charge= 14.4186  magn=  2.3380

     total cpu time spent up to now is       12.2 secs

     End of self-consistent calculation

     Number of k-points >= 100: set verbosity='high' to print the bands.

     the Fermi energy is    17.3876 ev

!    total energy              =    -500.69432623 Ry
     estimated scf accuracy    <          2.0E-09 Ry
     smearing contrib. (-TS)   =      -0.00015521 Ry
     internal energy E=F+TS    =    -500.69417102 Ry

     The total energy is F=E-TS. E is the sum of the following terms:
     one-electron contribution =    -233.28122652 Ry
     hartree contribution      =     135.04188629 Ry
     xc contribution           =     -58.41809103 Ry
     ewald contribution        =    -344.03673978 Ry

     total magnetization       =     4.56 Bohr mag/cell
     absolute magnetization    =     4.83 Bohr mag/cell

     convergence has been achieved in  16 iterations

     Forces acting on atoms (cartesian axes, Ry/au):

     atom    1 type  1   force =     0.00000000    0.00000000    0.00000000
     atom    2 type  1   force =     0.00000000   -0.00000000    0.00000000

     Total force =     0.000000     Total SCF correction =     0.000000


     Computing stress (Cartesian axis) and pressure

          total   stress  (Ry/bohr**3)                   (kbar)     P=      -57.88
  -0.00039347   0.00000000   0.00000000          -57.88        0.00        0.00
   0.00000000  -0.00039347   0.00000000            0.00      -57.88        0.00
   0.00000000   0.00000000  -0.00039347            0.00        0.00      -57.88


     BFGS Geometry Optimization
     Energy error            =      1.9E-03 Ry
     Gradient error          =      2.6E-31 Ry/Bohr
     Cell gradient error     =      5.8E+01 kbar

     number of scf cycles    =   1
     number of bfgs steps    =   0

     enthalpy           new  =    -500.6943262308 Ry

     new trust radius        =       0.0247970321 bohr
     new conv_thr            =       0.0000000100 Ry

     new unit-cell volume =    154.22167 a.u.^3 (    22.85329 Ang^3 )
     density =      8.11549 g/cm^3

CELL_PARAMETERS (angstrom)
   2.837807518   0.000000000   0.000000000
   0.000000000   2.837807518   0.000000000
   0.000000000   0.000000000   2.837807518

ATOMIC_POSITIONS (crystal)
Fe               0.0000000000        0.0000000000        0.0000000000
Fe               0.5000000000        0.5000000000        0.5000000000



     Writing config-only to output data dir ./out/Fe_bcc_fm.save/ :
     XML data file
     NEW-OLD atomic charge density approx. for the potential
     New effective cutoffs (rho, wfc):  713.84   71.39

     Check: negative core charge=   -0.000048
     Generating pointlists ...

     total cpu time spent up to now is       12.9 secs

     Self-consistent Calculation

     iteration #  1     ecut=    70.00 Ry     beta= 0.70
     Davidson diagonalization with overlap
     ethr =  1.00E-06,  avg # of iterations =  3.7

     total cpu time spent up to now is       13.1 secs

     total energy              =    -500.69445029 Ry
     estimated scf accuracy    <       0.00163389 Ry

     total magnetization       =     4.47 Bohr mag/cell
     absolute magnetization    =     4.75 Bohr mag/cell

     iteration #  2     ecut=    70.00 Ry     beta= 0.70
     Davidson diagonalization with overlap
     ethr =  5.11E-06,  avg # of iterations =  3.2

     total cpu time spent up to now is       13.3 secs

     total energy              =    -500.69436927 Ry
     estimated scf accuracy    <       0.00564386 Ry

     total magnetization       =     4.53 Bohr mag/cell
     absolute magnetization    =     4.79 Bohr mag/cell

     iteration #  3     ecut=    70.00 Ry     beta= 0.70
     Davidson diagonalization with overlap
     ethr =  5.11E-06,  avg # of iterations =  2.9

     total cpu time spent up to now is       13.4 secs

     total energy              =    -500.69527135 Ry
     estimated scf accuracy    <       0.00055329 Ry

     total magnetization       =     4.48 Bohr mag/cell
     absolute magnetization    =     4.75 Bohr mag/cell

     iteration #  4     ecut=    70.00 Ry     beta= 0.70
     Davidson diagonalization with overlap
     ethr =  1.73E-06,  avg # of iterations =  1.0

     total cpu time spent up to now is       13.6 secs

     total energy              =    -500.69532173 Ry
     estimated scf accuracy    <       0.00010797 Ry

     total magnetization       =     4.48 Bohr mag/cell
     absolute magnetization    =     4.75 Bohr mag/cell

     iteration #  5     ecut=    70.00 Ry     beta= 0.70
     Davidson diagonalization with overlap
     ethr =  3.37E-07,  avg # of iterations =  1.5

     total cpu time spent up to now is       13.7 secs

     total energy              =    -500.69533155 Ry
     estimated scf accuracy    <       0.00000243 Ry

     total magnetization       =     4.47 Bohr mag/cell
     absolute magnetization    =     4.73 Bohr mag/cell

     iteration #  6     ecut=    70.00 Ry     beta= 0.70
     Davidson diagonalization with overlap
     ethr =  7.60E-09,  avg # of iterations =  2.5

     total cpu time spent up to now is       13.8 secs

     total energy              =    -500.69533215 Ry
     estimated scf accuracy    <       0.00000006 Ry

     total magnetization       =     4.47 Bohr mag/cell
     absolute magnetization    =     4.73 Bohr mag/cell

     iteration #  7     ecut=    70.00 Ry     beta= 0.70
     Davidson diagonalization with overlap
     ethr =  1.75E-10,  avg # of iterations =  2.7

     total cpu time spent up to now is       14.0 secs

     total energy              =    -500.69533218 Ry
     estimated scf accuracy    <       0.00000006 Ry

     total magnetization       =     4.47 Bohr mag/cell
     absolute magnetization    =     4.73 Bohr mag/cell

     iteration #  8     ecut=    70.00 Ry     beta= 0.70
     Davidson diagonalization with overlap
     ethr =  1.75E-10,  avg # of iterations =  1.7
 
     Magnetic moment per site  (integrated on atomic sphere of radius R)
     atom   1 (R=0.357)  charge= 14.4533  magn=  2.2922
     atom   2 (R=0.357)  charge= 14.4529  magn=  2.2921

     total cpu time spent up to now is       14.1 secs

     End of self-consistent calculation

     Number of k-points >= 100: set verbosity='high' to print the bands.

     the Fermi energy is    18.0640 ev

!    total energy              =    -500.69533219 Ry
     estimated scf accuracy    <          1.5E-09 Ry
     smearing contrib. (-TS)   =      -0.00014834 Ry
     internal energy E=F+TS    =    -500.69518384 Ry

     The total energy is F=E-TS. E is the sum of the following terms:
     one-electron contribution =    -227.81740924 Ry
     hartree contribution      =     133.02560837 Ry
     xc contribution           =     -58.44877585 Ry
     ewald contribution        =    -347.45460712 Ry

     total magnetization       =     4.47 Bohr mag/cell
     absolute magnetization    =     4.73 Bohr mag/cell

     convergence has been achieved in   8 iterations

     Forces acting on atoms (cartesian axes, Ry/au):

     atom    1 type  1   force =     0.00000000    0.00000000    0.00000000
     atom    2 type  1   force =     0.00000000   -0.00000000    0.00000000

     Total force =     0.000000     Total SCF correction =     0.000000


     Computing stress (Cartesian axis) and pressure

          total   stress  (Ry/bohr**3)                   (kbar)     P=       -4.51
  -0.00003069   0.00000000   0.00000000           -4.51        0.00        0.00
   0.00000000  -0.00003069   0.00000000            0.00       -4.51        0.00
   0.00000000   0.00000000  -0.00003069            0.00        0.00       -4.51

     Energy error            =      1.0E-03 Ry
     Gradient error          =      2.7E-31 Ry/Bohr
     Cell gradient error     =      4.5E+00 kbar

     number of scf cycles    =   2
     number of bfgs steps    =   1

     enthalpy           old  =    -500.6943262308 Ry
     enthalpy           new  =    -500.6953321864 Ry

     CASE: enthalpy          _new < enthalpy          _old

     new trust radius        =       0.0020431565 bohr
     new conv_thr            =            1.0E-10 Ry

     new unit-cell volume =    153.84139 a.u.^3 (    22.79694 Ang^3 )
     density =      8.13555 g/cm^3

CELL_PARAMETERS (angstrom)
   2.835473082   0.000000000   0.000000000
   0.000000000   2.835473082   0.000000000
   0.000000000   0.000000000   2.835473082

ATOMIC_POSITIONS (crystal)
Fe               0.0000000000        0.0000000000        0.0000000000
Fe               0.5000000000        0.5000000000        0.5000000000



     Writing config-only to output data dir ./out/Fe_bcc_fm.save/ :
     XML data file
     NEW-OLD atomic charge density approx. for the potential
     New effective cutoffs (rho, wfc):  715.01   71.51

     Check: negative core charge=   -0.000048
     Generating pointlists ...
     new r_m :   0.3534 (alat units)  1.9142 (a.u.) for type    1

     total cpu time spent up to now is       14.3 secs

     Self-consistent Calculation

     iteration #  1     ecut=    70.00 Ry     beta= 0.70
     Davidson diagonalization with overlap
     ethr =  1.00E-06,  avg # of iterations =  2.0

     Threshold (ethr) on eigenvalues was too large:
     Diagonalizing with lowered threshold

     Davidson diagonalization with overlap
     ethr =  3.17E-08,  avg # of iterations =  1.0

     total cpu time spent up to now is       14.6 secs

     total energy              =    -500.69533167 Ry
     estimated scf accuracy    <       0.00001087 Ry

     total magnetization       =     4.47 Bohr mag/cell
     absolute magnetization    =     4.72 Bohr mag/cell

     iteration #  2     ecut=    70.00 Ry     beta= 0.70
     Davidson diagonalization with overlap
     ethr =  3.40E-08,  avg # of iterations =  3.3

     total cpu time spent up to now is       14.8 secs

     total energy              =    -500.69532393 Ry
     estimated scf accuracy    <       0.00008372 Ry

     total magnetization       =     4.47 Bohr mag/cell
     absolute magnetization    =     4.73 Bohr mag/cell

     iteration #  3     ecut=    70.00 Ry     beta= 0.70
     Davidson diagonalization with overlap
     ethr =  3.40E-08,  avg # of iterations =  3.0

     total cpu time spent up to now is       14.9 secs

     total energy              =    -500.69532620 Ry
     estimated scf accuracy    <       0.00023055 Ry

     total magnetization       =     4.47 Bohr mag/cell
     absolute magnetization    =     4.72 Bohr mag/cell

     iteration #  4     ecut=    70.00 Ry     beta= 0.70
     Davidson diagonalization with overlap
     ethr =  3.40E-08,  avg # of iterations =  2.5

     total cpu time spent up to now is       15.1 secs

     total energy              =    -500.69533758 Ry
     estimated scf accuracy    <       0.00000012 Ry

     total magnetization       =     4.47 Bohr mag/cell
     absolute magnetization    =     4.72 Bohr mag/cell

     iteration #  5     ecut=    70.00 Ry     beta= 0.70
     Davidson diagonalization with overlap
     ethr =  3.90E-10,  avg # of iterations =  2.8

     total cpu time spent up to now is       15.3 secs

     total energy              =    -500.69533762 Ry
     estimated scf accuracy    <       0.00000014 Ry

     total magnetization       =     4.47 Bohr mag/cell
     absolute magnetization    =     4.72 Bohr mag/cell

     iteration #  6     ecut=    70.00 Ry     beta= 0.70
     Davidson diagonalization with overlap
     ethr =  3.90E-10,  avg # of iterations =  1.4

     total cpu time spent up to now is       15.4 secs

     total energy              =    -500.69533763 Ry
     estimated scf accuracy    <          3.6E-09 Ry

     total magnetization       =     4.47 Bohr mag/cell
     absolute magnetization    =     4.72 Bohr mag/cell

     iteration #  7     ecut=    70.00 Ry     beta= 0.70
     Davidson diagonalization with overlap
     ethr =  1.11E-11,  avg # of iterations =  2.3

     total cpu time spent up to now is       15.5 secs

     total energy              =    -500.69533763 Ry
     estimated scf accuracy    <          1.8E-09 Ry

     total magnetization       =     4.47 Bohr mag/cell
     absolute magnetization    =     4.72 Bohr mag/cell

     iteration #  8     ecut=    70.00 Ry     beta= 0.70
     Davidson diagonalization with overlap
     ethr =  5.67E-12,  avg # of iterations =  1.0
 
     Magnetic moment per site  (integrated on atomic sphere of radius R)
     atom   1 (R=0.353)  charge= 14.3917  magn=  2.2869
     atom   2 (R=0.353)  charge= 14.3919  magn=  2.2869

     total cpu time spent up to now is       15.7 secs

     End of self-consistent calculation

     Number of k-points >= 100: set verbosity='high' to print the bands.

     the Fermi energy is    18.1214 ev

!    total energy              =    -500.69533763 Ry
     estimated scf accuracy    <          3.0E-11 Ry
     smearing contrib. (-TS)   =      -0.00014971 Ry
     internal energy E=F+TS    =    -500.69518793 Ry

     The total energy is F=E-TS. E is the sum of the following terms:
     one-electron contribution =    -227.36131823 Ry
     hartree contribution      =     132.85832509 Ry
     xc contribution           =     -58.45152946 Ry
     ewald contribution        =    -347.74066533 Ry

     total magnetization       =     4.47 Bohr mag/cell
     absolute magnetization    =     4.72 Bohr mag/cell

     convergence has been achieved in   8 iterations

     Forces acting on atoms (cartesian axes, Ry/au):

     atom    1 type  1   force =     0.00000000    0.00000000    0.00000000
     atom    2 type  1   force =     0.00000000    0.00000000    0.00000000

     Total force =     0.000000     Total SCF correction =     0.000000


     Computing stress (Cartesian axis) and pressure

          total   stress  (Ry/bohr**3)                   (kbar)     P=        0.30
   0.00000202   0.00000000   0.00000000            0.30        0.00        0.00
   0.00000000   0.00000202   0.00000000            0.00        0.30        0.00
   0.00000000   0.00000000   0.00000202            0.00        0.00        0.30

     Energy error            =      5.4E-06 Ry
     Gradient error          =      1.3E-31 Ry/Bohr
     Cell gradient error     =      3.0E-01 kbar

     bfgs converged in   3 scf cycles and   2 bfgs steps
     (criteria: energy <  1.0E-04 Ry, force <  1.0E-03 Ry/Bohr, cell <  5.0E-01 kbar)

     End of BFGS Geometry Optimization

     Final enthalpy           =    -500.6953376333 Ry

     File ./out/Fe_bcc_fm.bfgs deleted, as requested
Begin final coordinates
     new unit-cell volume =    153.84139 a.u.^3 (    22.79694 Ang^3 )
     density =      8.13555 g/cm^3

CELL_PARAMETERS (angstrom)
   2.835473082   0.000000000   0.000000000
   0.000000000   2.835473082   0.000000000
   0.000000000   0.000000000   2.835473082

ATOMIC_POSITIONS (crystal)
Fe               0.0000000000        0.0000000000        0.0000000000
Fe               0.5000000000        0.5000000000        0.5000000000
End final coordinates



     Writing config-only to output data dir ./out/Fe_bcc_fm.save/ :
     XML data file

     Final scf calculation at the relaxed structure.
     The G-vectors are recalculated for the final unit cell
     Results may differ from those at the preceding step.
 
     Parallelization info
     --------------------
     sticks:   dense  smooth     PW     G-vecs:    dense   smooth      PW
     Min         400     160     49                12074     3036     527
     Max         402     161     50                12075     3039     528
     Sum        1605     641    197                48297    12149    2109
 
     Using Slab Decomposition
 


     bravais-lattice index     =            0
     lattice parameter (alat)  =       5.4160  a.u.
     unit-cell volume          =     153.8414 (a.u.)^3
     number of atoms/cell      =            2
     number of atomic types    =            1
     number of electrons       =        32.00
     number of Kohn-Sham states=           20
     kinetic-energy cutoff     =      70.0000  Ry
     charge density cutoff     =     700.0000  Ry
     scf convergence threshold =      1.0E-10
     mixing beta               =       0.7000
     number of iterations used =            8  plain     mixing
     press convergence thresh. =      5.0E-01
     Exchange-correlation=  SLA  PW   PBX  PBC
                           (   1   4   3   4   0   0   0)

     celldm(1)=   5.415955  celldm(2)=   0.000000  celldm(3)=   0.000000
     celldm(4)=   0.000000  celldm(5)=   0.000000  celldm(6)=   0.000000

     crystal axes: (cart. coord. in units of alat)
               a(1) = (   0.989349   0.000000   0.000000 )  
               a(2) = (   0.000000   0.989349   0.000000 )  
               a(3) = (   0.000000   0.000000   0.989349 )  

     reciprocal axes: (cart. coord. in units 2 pi/alat)
               b(1) = (  1.010766  0.000000  0.000000 )  
               b(2) = (  0.000000  1.010766  0.000000 )  
               b(3) = (  0.000000  0.000000  1.010766 )  


     PseudoPot. # 1 for Fe read from file:
     /home/m0049/m004905/PSPOT/fe_pbe_v1.5.uspp.F.UPF
     MD5 check sum: a130daea23fe5165f5d574ae7f82ed95
     Pseudo is Ultrasoft + core correction, Zval = 16.0
     Generated by new atomic code, or converted to UPF format
     Using radial grid of  861 points,  6 beta functions with: 
                l(1) =   0
                l(2) =   0
                l(3) =   1
                l(4) =   1
                l(5) =   2
                l(6) =   2
     Q(r) pseudized with  8 coefficients,  rinner =    1.000   1.000   1.000
                                                       1.000   1.000

     atomic species   valence    mass     pseudopotential
     Fe               16.00    55.84500     Fe( 1.00)

     Starting magnetic structure 
     atomic species   magnetization
     Fe              0.159

     48 Sym. Ops., with inversion, found



   Cartesian axes

     site n.     atom                  positions (alat units)
         1        Fe     tau(   1) = (   0.0000000   0.0000000   0.0000000  )
         2        Fe     tau(   2) = (   0.4946743   0.4946743   0.4946743  )

     number of k points=    84  Methfessel-Paxton smearing, width (Ry)=  0.0100
                       cart. coord. in units 2pi/alat
        k(    1) = (   0.0000000   0.0000000   0.0000000), wk =   0.0005787
        k(    2) = (   0.0000000   0.0000000   0.0842305), wk =   0.0034722
        k(    3) = (   0.0000000   0.0000000   0.1684610), wk =   0.0034722
        k(    4) = (   0.0000000   0.0000000   0.2526915), wk =   0.0034722
        k(    5) = (   0.0000000   0.0000000   0.3369220), wk =   0.0034722
        k(    6) = (   0.0000000   0.0000000   0.4211525), wk =   0.0034722
        k(    7) = (   0.0000000   0.0000000  -0.5053830), wk =   0.0017361
        k(    8) = (   0.0000000   0.0842305   0.0842305), wk =   0.0069444
        k(    9) = (   0.0000000   0.0842305   0.1684610), wk =   0.0138889
        k(   10) = (   0.0000000   0.0842305   0.2526915), wk =   0.0138889
        k(   11) = (   0.0000000   0.0842305   0.3369220), wk =   0.0138889
        k(   12) = (   0.0000000   0.0842305   0.4211525), wk =   0.0138889
        k(   13) = (   0.0000000   0.0842305  -0.5053830), wk =   0.0069444
        k(   14) = (   0.0000000   0.1684610   0.1684610), wk =   0.0069444
        k(   15) = (   0.0000000   0.1684610   0.2526915), wk =   0.0138889
        k(   16) = (   0.0000000   0.1684610   0.3369220), wk =   0.0138889
        k(   17) = (   0.0000000   0.1684610   0.4211525), wk =   0.0138889
        k(   18) = (   0.0000000   0.1684610  -0.5053830), wk =   0.0069444
        k(   19) = (   0.0000000   0.2526915   0.2526915), wk =   0.0069444
        k(   20) = (   0.0000000   0.2526915   0.3369220), wk =   0.0138889
        k(   21) = (   0.0000000   0.2526915   0.4211525), wk =   0.0138889
        k(   22) = (   0.0000000   0.2526915  -0.5053830), wk =   0.0069444
        k(   23) = (   0.0000000   0.3369220   0.3369220), wk =   0.0069444
        k(   24) = (   0.0000000   0.3369220   0.4211525), wk =   0.0138889
        k(   25) = (   0.0000000   0.3369220  -0.5053830), wk =   0.0069444
        k(   26) = (   0.0000000   0.4211525   0.4211525), wk =   0.0069444
        k(   27) = (   0.0000000   0.4211525  -0.5053830), wk =   0.0069444
        k(   28) = (   0.0000000  -0.5053830  -0.5053830), wk =   0.0017361
        k(   29) = (   0.0842305   0.0842305   0.0842305), wk =   0.0046296
        k(   30) = (   0.0842305   0.0842305   0.1684610), wk =   0.0138889
        k(   31) = (   0.0842305   0.0842305   0.2526915), wk =   0.0138889
        k(   32) = (   0.0842305   0.0842305   0.3369220), wk =   0.0138889
        k(   33) = (   0.0842305   0.0842305   0.4211525), wk =   0.0138889
        k(   34) = (   0.0842305   0.0842305  -0.5053830), wk =   0.0069444
        k(   35) = (   0.0842305   0.1684610   0.1684610), wk =   0.0138889
        k(   36) = (   0.0842305   0.1684610   0.2526915), wk =   0.0277778
        k(   37) = (   0.0842305   0.1684610   0.3369220), wk =   0.0277778
        k(   38) = (   0.0842305   0.1684610   0.4211525), wk =   0.0277778
        k(   39) = (   0.0842305   0.1684610  -0.5053830), wk =   0.0138889
        k(   40) = (   0.0842305   0.2526915   0.2526915), wk =   0.0138889
        k(   41) = (   0.0842305   0.2526915   0.3369220), wk =   0.0277778
        k(   42) = (   0.0842305   0.2526915   0.4211525), wk =   0.0277778
        k(   43) = (   0.0842305   0.2526915  -0.5053830), wk =   0.0138889
        k(   44) = (   0.0842305   0.3369220   0.3369220), wk =   0.0138889
        k(   45) = (   0.0842305   0.3369220   0.4211525), wk =   0.0277778
        k(   46) = (   0.0842305   0.3369220  -0.5053830), wk =   0.0138889
        k(   47) = (   0.0842305   0.4211525   0.4211525), wk =   0.0138889
        k(   48) = (   0.0842305   0.4211525  -0.5053830), wk =   0.0138889
        k(   49) = (   0.0842305  -0.5053830  -0.5053830), wk =   0.0034722
        k(   50) = (   0.1684610   0.1684610   0.1684610), wk =   0.0046296
        k(   51) = (   0.1684610   0.1684610   0.2526915), wk =   0.0138889
        k(   52) = (   0.1684610   0.1684610   0.3369220), wk =   0.0138889
        k(   53) = (   0.1684610   0.1684610   0.4211525), wk =   0.0138889
        k(   54) = (   0.1684610   0.1684610  -0.5053830), wk =   0.0069444
        k(   55) = (   0.1684610   0.2526915   0.2526915), wk =   0.0138889
        k(   56) = (   0.1684610   0.2526915   0.3369220), wk =   0.0277778
        k(   57) = (   0.1684610   0.2526915   0.4211525), wk =   0.0277778
        k(   58) = (   0.1684610   0.2526915  -0.5053830), wk =   0.0138889
        k(   59) = (   0.1684610   0.3369220   0.3369220), wk =   0.0138889
        k(   60) = (   0.1684610   0.3369220   0.4211525), wk =   0.0277778
        k(   61) = (   0.1684610   0.3369220  -0.5053830), wk =   0.0138889
        k(   62) = (   0.1684610   0.4211525   0.4211525), wk =   0.0138889
        k(   63) = (   0.1684610   0.4211525  -0.5053830), wk =   0.0138889
        k(   64) = (   0.1684610  -0.5053830  -0.5053830), wk =   0.0034722
        k(   65) = (   0.2526915   0.2526915   0.2526915), wk =   0.0046296
        k(   66) = (   0.2526915   0.2526915   0.3369220), wk =   0.0138889
        k(   67) = (   0.2526915   0.2526915   0.4211525), wk =   0.0138889
        k(   68) = (   0.2526915   0.2526915  -0.5053830), wk =   0.0069444
        k(   69) = (   0.2526915   0.3369220   0.3369220), wk =   0.0138889
        k(   70) = (   0.2526915   0.3369220   0.4211525), wk =   0.0277778
        k(   71) = (   0.2526915   0.3369220  -0.5053830), wk =   0.0138889
        k(   72) = (   0.2526915   0.4211525   0.4211525), wk =   0.0138889
        k(   73) = (   0.2526915   0.4211525  -0.5053830), wk =   0.0138889
        k(   74) = (   0.2526915  -0.5053830  -0.5053830), wk =   0.0034722
        k(   75) = (   0.3369220   0.3369220   0.3369220), wk =   0.0046296
        k(   76) = (   0.3369220   0.3369220   0.4211525), wk =   0.0138889
        k(   77) = (   0.3369220   0.3369220  -0.5053830), wk =   0.0069444
        k(   78) = (   0.3369220   0.4211525   0.4211525), wk =   0.0138889
        k(   79) = (   0.3369220   0.4211525  -0.5053830), wk =   0.0138889
        k(   80) = (   0.3369220  -0.5053830  -0.5053830), wk =   0.0034722
        k(   81) = (   0.4211525   0.4211525   0.4211525), wk =   0.0046296
        k(   82) = (   0.4211525   0.4211525  -0.5053830), wk =   0.0069444
        k(   83) = (   0.4211525  -0.5053830  -0.5053830), wk =   0.0034722
        k(   84) = (  -0.5053830  -0.5053830  -0.5053830), wk =   0.0005787

     Dense  grid:    48297 G-vectors     FFT dimensions: (  45,  45,  45)

     Smooth grid:    12149 G-vectors     FFT dimensions: (  30,  30,  30)

     Estimated max dynamical RAM per process >      19.03 MB

     Estimated total dynamical RAM >       1.05 GB

     Check: negative core charge=   -0.000053
     Generating pointlists ...

     Initial potential from superposition of free atoms

     starting charge      30.0000, renormalised to      32.0000
     Starting wfcs are   26 randomized atomic wfcs

     total cpu time spent up to now is       16.0 secs

     Self-consistent Calculation

     iteration #  1     ecut=    70.00 Ry     beta= 0.70
     Davidson diagonalization with overlap
     ethr =  1.00E-06,  avg # of iterations =  8.0

     total cpu time spent up to now is       16.3 secs

     total energy              =    -498.10363645 Ry
     estimated scf accuracy    <       4.66951258 Ry

     total magnetization       =     3.74 Bohr mag/cell
     absolute magnetization    =     3.74 Bohr mag/cell

     iteration #  2     ecut=    70.00 Ry     beta= 0.70
     Davidson diagonalization with overlap
     ethr =  1.00E-02,  avg # of iterations =  3.1

     total cpu time spent up to now is       16.5 secs

     total energy              =    -498.50192418 Ry
     estimated scf accuracy    <      12.77226442 Ry

     total magnetization       =     4.03 Bohr mag/cell
     absolute magnetization    =     4.05 Bohr mag/cell

     iteration #  3     ecut=    70.00 Ry     beta= 0.70
     Davidson diagonalization with overlap
     ethr =  1.00E-02,  avg # of iterations =  2.6

     total cpu time spent up to now is       16.6 secs

     total energy              =    -500.68728321 Ry
     estimated scf accuracy    <       0.00613711 Ry

     total magnetization       =     4.20 Bohr mag/cell
     absolute magnetization    =     4.32 Bohr mag/cell

     iteration #  4     ecut=    70.00 Ry     beta= 0.70
     Davidson diagonalization with overlap
     ethr =  1.92E-05,  avg # of iterations =  3.4

     total cpu time spent up to now is       16.8 secs

     total energy              =    -500.69187866 Ry
     estimated scf accuracy    <       0.00758443 Ry

     total magnetization       =     4.25 Bohr mag/cell
     absolute magnetization    =     4.40 Bohr mag/cell

     iteration #  5     ecut=    70.00 Ry     beta= 0.70
     Davidson diagonalization with overlap
     ethr =  1.92E-05,  avg # of iterations =  2.8

     total cpu time spent up to now is       17.0 secs

     total energy              =    -500.68990631 Ry
     estimated scf accuracy    <       0.12633970 Ry

     total magnetization       =     4.32 Bohr mag/cell
     absolute magnetization    =     4.51 Bohr mag/cell

     iteration #  6     ecut=    70.00 Ry     beta= 0.70
     Davidson diagonalization with overlap
     ethr =  1.92E-05,  avg # of iterations =  2.3

     total cpu time spent up to now is       17.1 secs

     total energy              =    -500.69409176 Ry
     estimated scf accuracy    <       0.00696819 Ry

     total magnetization       =     4.42 Bohr mag/cell
     absolute magnetization    =     4.62 Bohr mag/cell

     iteration #  7     ecut=    70.00 Ry     beta= 0.70
     Davidson diagonalization with overlap
     ethr =  1.92E-05,  avg # of iterations =  2.1

     total cpu time spent up to now is       17.2 secs

     total energy              =    -500.69523981 Ry
     estimated scf accuracy    <       0.00014483 Ry

     total magnetization       =     4.44 Bohr mag/cell
     absolute magnetization    =     4.67 Bohr mag/cell

     iteration #  8     ecut=    70.00 Ry     beta= 0.70
     Davidson diagonalization with overlap
     ethr =  4.53E-07,  avg # of iterations =  2.7

     total cpu time spent up to now is       17.4 secs

     total energy              =    -500.69526358 Ry
     estimated scf accuracy    <       0.00008589 Ry

     total magnetization       =     4.46 Bohr mag/cell
     absolute magnetization    =     4.70 Bohr mag/cell

     iteration #  9     ecut=    70.00 Ry     beta= 0.70
     Davidson diagonalization with overlap
     ethr =  2.68E-07,  avg # of iterations =  2.4

     total cpu time spent up to now is       17.6 secs

     total energy              =    -500.69529641 Ry
     estimated scf accuracy    <       0.00002375 Ry

     total magnetization       =     4.46 Bohr mag/cell
     absolute magnetization    =     4.72 Bohr mag/cell

     iteration # 10     ecut=    70.00 Ry     beta= 0.70
     Davidson diagonalization with overlap
     ethr =  7.42E-08,  avg # of iterations =  2.3

     total cpu time spent up to now is       17.7 secs

     total energy              =    -500.69530163 Ry
     estimated scf accuracy    <       0.00000065 Ry

     total magnetization       =     4.47 Bohr mag/cell
     absolute magnetization    =     4.72 Bohr mag/cell

     iteration # 11     ecut=    70.00 Ry     beta= 0.70
     Davidson diagonalization with overlap
     ethr =  2.02E-09,  avg # of iterations =  1.6

     total cpu time spent up to now is       17.8 secs

     total energy              =    -500.69530165 Ry
     estimated scf accuracy    <       0.00000017 Ry

     total magnetization       =     4.47 Bohr mag/cell
     absolute magnetization    =     4.72 Bohr mag/cell

     iteration # 12     ecut=    70.00 Ry     beta= 0.70
     Davidson diagonalization with overlap
     ethr =  5.44E-10,  avg # of iterations =  2.2

     total cpu time spent up to now is       18.0 secs

     total energy              =    -500.69530168 Ry
     estimated scf accuracy    <       0.00000004 Ry

     total magnetization       =     4.47 Bohr mag/cell
     absolute magnetization    =     4.72 Bohr mag/cell

     iteration # 13     ecut=    70.00 Ry     beta= 0.70
     Davidson diagonalization with overlap
     ethr =  1.30E-10,  avg # of iterations =  1.7

     total cpu time spent up to now is       18.1 secs

     total energy              =    -500.69530168 Ry
     estimated scf accuracy    <          4.8E-09 Ry

     total magnetization       =     4.47 Bohr mag/cell
     absolute magnetization    =     4.72 Bohr mag/cell

     iteration # 14     ecut=    70.00 Ry     beta= 0.70
     Davidson diagonalization with overlap
     ethr =  1.51E-11,  avg # of iterations =  2.1

     total cpu time spent up to now is       18.3 secs

     total energy              =    -500.69530168 Ry
     estimated scf accuracy    <          1.6E-10 Ry

     total magnetization       =     4.47 Bohr mag/cell
     absolute magnetization    =     4.72 Bohr mag/cell

     iteration # 15     ecut=    70.00 Ry     beta= 0.70
     Davidson diagonalization with overlap
     ethr =  4.99E-13,  avg # of iterations =  2.9
 
     Magnetic moment per site  (integrated on atomic sphere of radius R)
     atom   1 (R=0.353)  charge= 14.3917  magn=  2.2869
     atom   2 (R=0.353)  charge= 14.3919  magn=  2.2869

     total cpu time spent up to now is       18.4 secs

     End of self-consistent calculation

     Number of k-points >= 100: set verbosity='high' to print the bands.

     the Fermi energy is    18.1215 ev

!    total energy              =    -500.69530168 Ry
     estimated scf accuracy    <          9.9E-12 Ry
     smearing contrib. (-TS)   =      -0.00014975 Ry
     internal energy E=F+TS    =    -500.69515193 Ry

     The total energy is F=E-TS. E is the sum of the following terms:
     one-electron contribution =    -227.36134380 Ry
     hartree contribution      =     132.85846595 Ry
     xc contribution           =     -58.45160875 Ry
     ewald contribution        =    -347.74066533 Ry

     total magnetization       =     4.47 Bohr mag/cell
     absolute magnetization    =     4.72 Bohr mag/cell

     convergence has been achieved in  15 iterations

     Forces acting on atoms (cartesian axes, Ry/au):

     atom    1 type  1   force =     0.00000000   -0.00000000    0.00000000
     atom    2 type  1   force =     0.00000000    0.00000000    0.00000000

     Total force =     0.000000     Total SCF correction =     0.000000


     Computing stress (Cartesian axis) and pressure

          total   stress  (Ry/bohr**3)                   (kbar)     P=        0.03
   0.00000022   0.00000000   0.00000000            0.03        0.00        0.00
   0.00000000   0.00000022   0.00000000            0.00        0.03        0.00
   0.00000000   0.00000000   0.00000022            0.00        0.00        0.03


     Writing all to output data dir ./out/Fe_bcc_fm.save/ :
     XML data file, charge density, pseudopotentials, collected wavefunctions
 
     init_run     :      0.54s CPU      6.72s WALL (       2 calls)
     electrons    :      6.97s CPU      9.72s WALL (       4 calls)
     update_pot   :      0.05s CPU      0.06s WALL (       2 calls)
     forces       :      0.15s CPU      0.16s WALL (       4 calls)
     stress       :      0.25s CPU      0.27s WALL (       4 calls)

     Called by init_run:
     wfcinit      :      0.09s CPU      2.78s WALL (       2 calls)
     potinit      :      0.11s CPU      0.90s WALL (       2 calls)
     hinit0       :      0.15s CPU      2.53s WALL (       2 calls)

     Called by electrons:
     c_bands      :      4.50s CPU      5.72s WALL (      48 calls)
     sum_band     :      1.11s CPU      1.23s WALL (      48 calls)
     v_of_rho     :      1.10s CPU      1.59s WALL (      51 calls)
     newd         :      0.16s CPU      0.33s WALL (      51 calls)
     mix_rho      :      0.11s CPU      0.59s WALL (      48 calls)

     Called by c_bands:
     init_us_2    :      0.10s CPU      0.10s WALL (     954 calls)
     cegterg      :      3.72s CPU      4.81s WALL (     432 calls)

     Called by *egterg:
     cdiaghg      :      0.51s CPU      3.25s WALL (    1323 calls)
     h_psi        :      2.85s CPU      3.49s WALL (    1368 calls)
     s_psi        :      0.05s CPU      0.05s WALL (    1368 calls)
     g_psi        :      0.01s CPU      0.02s WALL (     918 calls)

     Called by h_psi:
     h_psi:calbec :      0.10s CPU      0.60s WALL (    1368 calls)
     vloc_psi     :      2.68s CPU      2.81s WALL (    1368 calls)
                                        0.00s GPU  (    1368 calls)
     add_vuspsi   :      0.05s CPU      0.06s WALL (    1368 calls)

     General routines
     calbec       :      0.17s CPU      0.67s WALL (    2412 calls)
     fft          :      0.59s CPU      2.97s WALL (    1431 calls)
     ffts         :      0.03s CPU      0.41s WALL (     198 calls)
     fftw         :      2.88s CPU      3.02s WALL (   53546 calls)
     interpolate  :      0.06s CPU      0.45s WALL (     102 calls)
 
     Parallel routines
 
     PWSCF        :      8.18s CPU     19.03s WALL

 
   This run was terminated on:  18:18:32  10Jul2025            

=------------------------------------------------------------------------------=
   JOB DONE.
=------------------------------------------------------------------------------=
