
     Program PWSCF v.7.1 starts on 11Jun2026 at  3:37: 3 

     This program is part of the open-source Quantum ESPRESSO suite
     for quantum simulation of materials; please cite
         "P. Giannozzi et al., J. Phys.:Condens. Matter 21 395502 (2009);
         "P. Giannozzi et al., J. Phys.:Condens. Matter 29 465901 (2017);
         "P. Giannozzi et al., J. Chem. Phys. 152 154105 (2020);
          URL http://www.quantum-espresso.org", 
     in publications or presentations arising from this work. More details at
     http://www.quantum-espresso.org/quote

     Parallel version (MPI & OpenMP), running on       7 processor cores
     Number of MPI processes:                 7
     Threads/MPI process:                     1

     MPI processes distributed on     7 nodes
     223340 MiB available memory on the printing compute node when the environment starts
 
     Waiting for input...
     Reading input from standard input
Warning: card &CELL ignored
Warning: card / ignored
Warning: card &FCP ignored
Warning: card / ignored
Warning: card &RISM ignored
Warning: card / ignored

     Current dimensions of program PWSCF are:
     Max number of different atomic species (ntypx) = 10
     Max number of k-points (npk) =  40000
     Max angular momentum in pseudopotentials (lmaxx) =  4
     Message from routine setup:
     using ibrav=0 with symmetry is DISCOURAGED, use correct ibrav instead
 
     R & G space division:  proc/nbgrp/npool/nimage =       7
     Subspace diagonalization in iterative solution of the eigenvalue problem:
     a serial algorithm will be used

 
     Parallelization info
     --------------------
     sticks:   dense  smooth     PW     G-vecs:    dense   smooth      PW
     Min          85      34     12                 6587     1664     314
     Max          85      35     13                 6597     1677     321
     Sum         595     241     85                46129    11689    2225
 
     Using Slab Decomposition
 


     bravais-lattice index     =            0
     lattice parameter (alat)  =       4.6633  a.u.
     unit-cell volume          =     341.6569 (a.u.)^3
     number of atoms/cell      =            4
     number of atomic types    =            1
     number of electrons       =        16.00
     number of Kohn-Sham states=           12
     kinetic-energy cutoff     =      40.0000  Ry
     charge density cutoff     =     400.0000  Ry
     scf convergence threshold =      1.0E-08
     mixing beta               =       0.3000
     number of iterations used =            8  plain     mixing
     Exchange-correlation= SLA  PW   PBE  PBE
                           (   1   4   3   4   0   0   0)

     celldm(1)=   4.663315  celldm(2)=   0.000000  celldm(3)=   0.000000
     celldm(4)=   0.000000  celldm(5)=   0.000000  celldm(6)=   0.000000

     crystal axes: (cart. coord. in units of alat)
               a(1) = (   1.000000   0.000000   0.000000 )  
               a(2) = (  -0.500000   0.866025   0.000000 )  
               a(3) = (   0.000000   0.000000   3.890231 )  

     reciprocal axes: (cart. coord. in units 2 pi/alat)
               b(1) = (  1.000000  0.577350  0.000000 )  
               b(2) = (  0.000000  1.154701  0.000000 )  
               b(3) = (  0.000000  0.000000  0.257054 )  


     PseudoPot. # 1 for C  read from file:
     /home/k0750/k075000/PSPOT/c_pbe_v1.2.uspp.F.UPF
     MD5 check sum: d1aef80898a10debaa0f26306b886e00
     Pseudo is Ultrasoft + core correction, Zval =  4.0
     Generated by new atomic code, or converted to UPF format
     Using radial grid of  721 points,  4 beta functions with: 
                l(1) =   0
                l(2) =   0
                l(3) =   1
                l(4) =   1
     Q(r) pseudized with  8 coefficients,  rinner =    1.100   1.100   1.100


     atomic species   valence    mass     pseudopotential
        C              4.00    12.01100     C ( 1.00)

      8 Sym. Ops., with inversion, found ( 4 have fractional translation)



   Cartesian axes

     site n.     atom                  positions (alat units)
         1           C   tau(   1) = (   0.0000000   0.0000000   2.9176730  )
         2           C   tau(   2) = (   0.0000000   0.0000000   0.9725577  )
         3           C   tau(   3) = (  -0.0000050   0.5773532   2.9176730  )
         4           C   tau(   4) = (   0.5000050   0.2886722   0.9725577  )

     number of k points=   215  Marzari-Vanderbilt smearing, width (Ry)=  0.0100

     Number of k-points >= 100: set verbosity='high' to print them.

     Dense  grid:    46129 G-vectors     FFT dimensions: (  30,  30, 120)

     Smooth grid:    11689 G-vectors     FFT dimensions: (  20,  20,  80)

     Estimated max dynamical RAM per process >      17.98 MB

     Estimated total dynamical RAM >     125.87 MB

     Initial potential from superposition of free atoms

     starting charge      15.9998, renormalised to      16.0000
     Starting wfcs are   16 randomized atomic wfcs

     total cpu time spent up to now is        0.7 secs

     Self-consistent Calculation

     iteration #  1     ecut=    40.00 Ry     beta= 0.30
     Davidson diagonalization with overlap
     ethr =  1.00E-02,  avg # of iterations =  2.9

     total cpu time spent up to now is        2.3 secs

     total energy              =     -46.00969038 Ry
     estimated scf accuracy    <       0.37959070 Ry

     iteration #  2     ecut=    40.00 Ry     beta= 0.30
     Davidson diagonalization with overlap
     ethr =  2.37E-03,  avg # of iterations =  1.8

     total cpu time spent up to now is        3.4 secs

     total energy              =     -45.93693671 Ry
     estimated scf accuracy    <       0.13750739 Ry

     iteration #  3     ecut=    40.00 Ry     beta= 0.30
     Davidson diagonalization with overlap
     ethr =  8.59E-04,  avg # of iterations =  3.5

     total cpu time spent up to now is        4.8 secs

     total energy              =     -45.96244980 Ry
     estimated scf accuracy    <       0.00341259 Ry

     iteration #  4     ecut=    40.00 Ry     beta= 0.30
     Davidson diagonalization with overlap
     ethr =  2.13E-05,  avg # of iterations =  6.1

     total cpu time spent up to now is        6.7 secs

     total energy              =     -45.95981333 Ry
     estimated scf accuracy    <       0.00923947 Ry

     iteration #  5     ecut=    40.00 Ry     beta= 0.30
     Davidson diagonalization with overlap
     ethr =  2.13E-05,  avg # of iterations =  3.3

     total cpu time spent up to now is        8.2 secs

     total energy              =     -45.96130181 Ry
     estimated scf accuracy    <       0.00000380 Ry

     iteration #  6     ecut=    40.00 Ry     beta= 0.30
     Davidson diagonalization with overlap
     ethr =  2.38E-08,  avg # of iterations =  4.2

     total cpu time spent up to now is        9.8 secs

     total energy              =     -45.96130724 Ry
     estimated scf accuracy    <       0.00000139 Ry

     iteration #  7     ecut=    40.00 Ry     beta= 0.30
     Davidson diagonalization with overlap
     ethr =  8.68E-09,  avg # of iterations =  2.0

     total cpu time spent up to now is       10.9 secs

     total energy              =     -45.96130747 Ry
     estimated scf accuracy    <       0.00000051 Ry

     iteration #  8     ecut=    40.00 Ry     beta= 0.30
     Davidson diagonalization with overlap
     ethr =  3.21E-09,  avg # of iterations =  1.8

     total cpu time spent up to now is       12.0 secs

     total energy              =     -45.96130763 Ry
     estimated scf accuracy    <       0.00000007 Ry

     iteration #  9     ecut=    40.00 Ry     beta= 0.30
     Davidson diagonalization with overlap
     ethr =  4.41E-10,  avg # of iterations =  2.0

     total cpu time spent up to now is       13.1 secs

     End of self-consistent calculation

     Number of k-points >= 100: set verbosity='high' to print the bands.

     the Fermi energy is     3.6329 ev

!    total energy              =     -45.96130780 Ry
     estimated scf accuracy    <          1.8E-09 Ry
     smearing contrib. (-TS)   =      -0.00016975 Ry
     internal energy E=F+TS    =     -45.96113805 Ry

     The total energy is F=E-TS. E is the sum of the following terms:
     one-electron contribution =     -45.88763784 Ry
     hartree contribution      =      28.88467122 Ry
     xc contribution           =     -14.52614669 Ry
     ewald contribution        =     -14.43202475 Ry

     convergence has been achieved in   9 iterations

     Forces acting on atoms (cartesian axes, Ry/au):

     atom    1 type  1   force =    -0.00002038    0.00001177    0.00000000
     atom    2 type  1   force =     0.00002038   -0.00001177    0.00000000
     atom    3 type  1   force =     0.00002041   -0.00001178    0.00000000
     atom    4 type  1   force =    -0.00002041    0.00001178    0.00000000

     Total force =     0.000047     Total SCF correction =     0.000000


     Computing stress (Cartesian axis) and pressure

          total   stress  (Ry/bohr**3)                   (kbar)     P=       -5.40
  -0.00004479  -0.00000000   0.00000000           -6.59       -0.00        0.00
  -0.00000000  -0.00004479   0.00000000           -0.00       -6.59        0.00
   0.00000000   0.00000000  -0.00002050            0.00        0.00       -3.02


     Writing all to output data dir ./tmp/graphite_d_4p80000.save/
 
     init_run     :      0.59s CPU      0.67s WALL (       1 calls)
     electrons    :     11.79s CPU     12.43s WALL (       1 calls)
     forces       :      0.11s CPU      0.11s WALL (       1 calls)
     stress       :      0.22s CPU      0.22s WALL (       1 calls)

     Called by init_run:
     wfcinit      :      0.50s CPU      0.52s WALL (       1 calls)
     potinit      :      0.02s CPU      0.04s WALL (       1 calls)
     hinit0       :      0.04s CPU      0.07s WALL (       1 calls)

     Called by electrons:
     c_bands      :     10.12s CPU     10.63s WALL (       9 calls)
     sum_band     :      1.56s CPU      1.63s WALL (       9 calls)
     v_of_rho     :      0.06s CPU      0.10s WALL (      10 calls)
     newd         :      0.03s CPU      0.03s WALL (      10 calls)
     mix_rho      :      0.01s CPU      0.01s WALL (       9 calls)

     Called by c_bands:
     init_us_2    :      0.12s CPU      0.13s WALL (    4515 calls)
     init_us_2:cp :      0.12s CPU      0.12s WALL (    4515 calls)
     cegterg      :      9.63s CPU      9.96s WALL (    1935 calls)

     Called by *egterg:
     cdiaghg      :      0.98s CPU      1.01s WALL (    7856 calls)
     h_psi        :      7.75s CPU      8.04s WALL (    8071 calls)
     s_psi        :      0.15s CPU      0.16s WALL (    8071 calls)
     g_psi        :      0.04s CPU      0.04s WALL (    5921 calls)

     Called by h_psi:
     h_psi:calbec :      0.41s CPU      0.42s WALL (    8071 calls)
     vloc_psi     :      7.13s CPU      7.41s WALL (    8071 calls)
     add_vuspsi   :      0.16s CPU      0.17s WALL (    8071 calls)

     General routines
     calbec       :      0.58s CPU      0.60s WALL (   11081 calls)
     fft          :      0.07s CPU      0.16s WALL (     153 calls)
     ffts         :      0.00s CPU      0.01s WALL (      19 calls)
     fftw         :      7.86s CPU      8.14s WALL (  157404 calls)
     interpolate  :      0.01s CPU      0.01s WALL (      10 calls)
 
     Parallel routines
 
     PWSCF        :     13.27s CPU     14.72s WALL

 
   This run was terminated on:   3:37:18  11Jun2026            

=------------------------------------------------------------------------------=
   JOB DONE.
=------------------------------------------------------------------------------=
