
     Program PWSCF v.7.1 starts on 11Jun2026 at  3:36:12 

     This program is part of the open-source Quantum ESPRESSO suite
     for quantum simulation of materials; please cite
         "P. Giannozzi et al., J. Phys.:Condens. Matter 21 395502 (2009);
         "P. Giannozzi et al., J. Phys.:Condens. Matter 29 465901 (2017);
         "P. Giannozzi et al., J. Chem. Phys. 152 154105 (2020);
          URL http://www.quantum-espresso.org", 
     in publications or presentations arising from this work. More details at
     http://www.quantum-espresso.org/quote

     Parallel version (MPI & OpenMP), running on       7 processor cores
     Number of MPI processes:                 7
     Threads/MPI process:                     1

     MPI processes distributed on     7 nodes
     223520 MiB available memory on the printing compute node when the environment starts
 
     Waiting for input...
     Reading input from standard input
Warning: card &CELL ignored
Warning: card / ignored
Warning: card &FCP ignored
Warning: card / ignored
Warning: card &RISM ignored
Warning: card / ignored

     Current dimensions of program PWSCF are:
     Max number of different atomic species (ntypx) = 10
     Max number of k-points (npk) =  40000
     Max angular momentum in pseudopotentials (lmaxx) =  4
     Message from routine setup:
     using ibrav=0 with symmetry is DISCOURAGED, use correct ibrav instead
 
     R & G space division:  proc/nbgrp/npool/nimage =       7
     Subspace diagonalization in iterative solution of the eigenvalue problem:
     a serial algorithm will be used

 
     Parallelization info
     --------------------
     sticks:   dense  smooth     PW     G-vecs:    dense   smooth      PW
     Min          85      34     12                 5495     1392     268
     Max          85      35     13                 5505     1403     275
     Sum         595     241     85                38491     9781    1895
 
     Using Slab Decomposition
 


     bravais-lattice index     =            0
     lattice parameter (alat)  =       4.6633  a.u.
     unit-cell volume          =     284.7141 (a.u.)^3
     number of atoms/cell      =            4
     number of atomic types    =            1
     number of electrons       =        16.00
     number of Kohn-Sham states=           12
     kinetic-energy cutoff     =      40.0000  Ry
     charge density cutoff     =     400.0000  Ry
     scf convergence threshold =      1.0E-08
     mixing beta               =       0.3000
     number of iterations used =            8  plain     mixing
     Exchange-correlation= SLA  PW   PBE  PBE
                           (   1   4   3   4   0   0   0)

     celldm(1)=   4.663315  celldm(2)=   0.000000  celldm(3)=   0.000000
     celldm(4)=   0.000000  celldm(5)=   0.000000  celldm(6)=   0.000000

     crystal axes: (cart. coord. in units of alat)
               a(1) = (   1.000000   0.000000   0.000000 )  
               a(2) = (  -0.500000   0.866025   0.000000 )  
               a(3) = (   0.000000   0.000000   3.241859 )  

     reciprocal axes: (cart. coord. in units 2 pi/alat)
               b(1) = (  1.000000  0.577350  0.000000 )  
               b(2) = (  0.000000  1.154701  0.000000 )  
               b(3) = (  0.000000  0.000000  0.308465 )  


     PseudoPot. # 1 for C  read from file:
     /home/k0750/k075000/PSPOT/c_pbe_v1.2.uspp.F.UPF
     MD5 check sum: d1aef80898a10debaa0f26306b886e00
     Pseudo is Ultrasoft + core correction, Zval =  4.0
     Generated by new atomic code, or converted to UPF format
     Using radial grid of  721 points,  4 beta functions with: 
                l(1) =   0
                l(2) =   0
                l(3) =   1
                l(4) =   1
     Q(r) pseudized with  8 coefficients,  rinner =    1.100   1.100   1.100


     atomic species   valence    mass     pseudopotential
        C              4.00    12.01100     C ( 1.00)

      8 Sym. Ops., with inversion, found ( 4 have fractional translation)



   Cartesian axes

     site n.     atom                  positions (alat units)
         1           C   tau(   1) = (   0.0000000   0.0000000   2.4313942  )
         2           C   tau(   2) = (   0.0000000   0.0000000   0.8104647  )
         3           C   tau(   3) = (  -0.0000050   0.5773532   2.4313942  )
         4           C   tau(   4) = (   0.5000050   0.2886722   0.8104647  )

     number of k points=   215  Marzari-Vanderbilt smearing, width (Ry)=  0.0100

     Number of k-points >= 100: set verbosity='high' to print them.

     Dense  grid:    38491 G-vectors     FFT dimensions: (  30,  30, 100)

     Smooth grid:     9781 G-vectors     FFT dimensions: (  20,  20,  64)

     Estimated max dynamical RAM per process >      15.06 MB

     Estimated total dynamical RAM >     105.40 MB

     Initial potential from superposition of free atoms

     starting charge      15.9998, renormalised to      16.0000
     Starting wfcs are   16 randomized atomic wfcs

     total cpu time spent up to now is        0.6 secs

     Self-consistent Calculation

     iteration #  1     ecut=    40.00 Ry     beta= 0.30
     Davidson diagonalization with overlap
     ethr =  1.00E-02,  avg # of iterations =  2.9

     total cpu time spent up to now is        2.0 secs

     total energy              =     -46.00835330 Ry
     estimated scf accuracy    <       0.37532412 Ry

     iteration #  2     ecut=    40.00 Ry     beta= 0.30
     Davidson diagonalization with overlap
     ethr =  2.35E-03,  avg # of iterations =  1.3

     total cpu time spent up to now is        2.9 secs

     total energy              =     -45.93779126 Ry
     estimated scf accuracy    <       0.13578642 Ry

     iteration #  3     ecut=    40.00 Ry     beta= 0.30
     Davidson diagonalization with overlap
     ethr =  8.49E-04,  avg # of iterations =  4.0

     total cpu time spent up to now is        4.3 secs

     total energy              =     -45.96194230 Ry
     estimated scf accuracy    <       0.00313109 Ry

     iteration #  4     ecut=    40.00 Ry     beta= 0.30
     Davidson diagonalization with overlap
     ethr =  1.96E-05,  avg # of iterations =  5.6

     total cpu time spent up to now is        5.9 secs

     total energy              =     -45.96001206 Ry
     estimated scf accuracy    <       0.00718379 Ry

     iteration #  5     ecut=    40.00 Ry     beta= 0.30
     Davidson diagonalization with overlap
     ethr =  1.96E-05,  avg # of iterations =  3.5

     total cpu time spent up to now is        7.2 secs

     total energy              =     -45.96115441 Ry
     estimated scf accuracy    <       0.00000574 Ry

     iteration #  6     ecut=    40.00 Ry     beta= 0.30
     Davidson diagonalization with overlap
     ethr =  3.59E-08,  avg # of iterations =  3.9

     total cpu time spent up to now is        8.6 secs

     total energy              =     -45.96115863 Ry
     estimated scf accuracy    <       0.00000120 Ry

     iteration #  7     ecut=    40.00 Ry     beta= 0.30
     Davidson diagonalization with overlap
     ethr =  7.53E-09,  avg # of iterations =  2.0

     total cpu time spent up to now is        9.6 secs

     total energy              =     -45.96115893 Ry
     estimated scf accuracy    <       0.00000026 Ry

     iteration #  8     ecut=    40.00 Ry     beta= 0.30
     Davidson diagonalization with overlap
     ethr =  1.63E-09,  avg # of iterations =  1.4

     total cpu time spent up to now is       10.5 secs

     total energy              =     -45.96115907 Ry
     estimated scf accuracy    <       0.00000005 Ry

     iteration #  9     ecut=    40.00 Ry     beta= 0.30
     Davidson diagonalization with overlap
     ethr =  2.93E-10,  avg # of iterations =  1.0

     total cpu time spent up to now is       11.4 secs

     total energy              =     -45.96115913 Ry
     estimated scf accuracy    <       0.00000003 Ry

     iteration # 10     ecut=    40.00 Ry     beta= 0.30
     Davidson diagonalization with overlap
     ethr =  1.87E-10,  avg # of iterations =  2.0

     total cpu time spent up to now is       12.4 secs

     End of self-consistent calculation

     Number of k-points >= 100: set verbosity='high' to print the bands.

     the Fermi energy is     5.1965 ev

!    total energy              =     -45.96115919 Ry
     estimated scf accuracy    <          2.9E-09 Ry
     smearing contrib. (-TS)   =      -0.00008842 Ry
     internal energy E=F+TS    =     -45.96107077 Ry

     The total energy is F=E-TS. E is the sum of the following terms:
     one-electron contribution =     -26.21643308 Ry
     hartree contribution      =      19.97579375 Ry
     xc contribution           =     -14.52823885 Ry
     ewald contribution        =     -25.19219259 Ry

     convergence has been achieved in  10 iterations

     Forces acting on atoms (cartesian axes, Ry/au):

     atom    1 type  1   force =    -0.00002211    0.00001277    0.00000000
     atom    2 type  1   force =     0.00002211   -0.00001277    0.00000000
     atom    3 type  1   force =     0.00002210   -0.00001276    0.00000000
     atom    4 type  1   force =    -0.00002210    0.00001276    0.00000000

     Total force =     0.000051     Total SCF correction =     0.000001


     Computing stress (Cartesian axis) and pressure

          total   stress  (Ry/bohr**3)                   (kbar)     P=       -5.62
  -0.00005566  -0.00000003   0.00000000           -8.19       -0.00        0.00
  -0.00000003  -0.00005569   0.00000000           -0.00       -8.19        0.00
   0.00000000   0.00000000  -0.00000318            0.00        0.00       -0.47


     Writing all to output data dir ./tmp/graphite_d_4p00000.save/
 
     init_run     :      0.49s CPU      0.57s WALL (       1 calls)
     electrons    :     11.06s CPU     11.79s WALL (       1 calls)
     forces       :      0.10s CPU      0.11s WALL (       1 calls)
     stress       :      0.20s CPU      0.20s WALL (       1 calls)

     Called by init_run:
     wfcinit      :      0.42s CPU      0.44s WALL (       1 calls)
     potinit      :      0.01s CPU      0.03s WALL (       1 calls)
     hinit0       :      0.03s CPU      0.06s WALL (       1 calls)

     Called by electrons:
     c_bands      :      9.46s CPU     10.04s WALL (      10 calls)
     sum_band     :      1.51s CPU      1.59s WALL (      10 calls)
     v_of_rho     :      0.06s CPU      0.10s WALL (      11 calls)
     newd         :      0.02s CPU      0.03s WALL (      11 calls)
     mix_rho      :      0.01s CPU      0.01s WALL (      10 calls)

     Called by c_bands:
     init_us_2    :      0.12s CPU      0.12s WALL (    4945 calls)
     init_us_2:cp :      0.11s CPU      0.12s WALL (    4945 calls)
     cegterg      :      8.97s CPU      9.32s WALL (    2150 calls)

     Called by *egterg:
     cdiaghg      :      1.00s CPU      1.03s WALL (    8091 calls)
     h_psi        :      7.09s CPU      7.39s WALL (    8306 calls)
     s_psi        :      0.14s CPU      0.14s WALL (    8306 calls)
     g_psi        :      0.03s CPU      0.03s WALL (    5941 calls)

     Called by h_psi:
     h_psi:calbec :      0.39s CPU      0.40s WALL (    8306 calls)
     vloc_psi     :      6.51s CPU      6.79s WALL (    8306 calls)
     add_vuspsi   :      0.15s CPU      0.15s WALL (    8306 calls)

     General routines
     calbec       :      0.56s CPU      0.58s WALL (   11531 calls)
     fft          :      0.06s CPU      0.15s WALL (     166 calls)
     ffts         :      0.00s CPU      0.01s WALL (      21 calls)
     fftw         :      7.21s CPU      7.52s WALL (  167786 calls)
     interpolate  :      0.00s CPU      0.01s WALL (      11 calls)
 
     Parallel routines
 
     PWSCF        :     12.41s CPU     13.70s WALL

 
   This run was terminated on:   3:36:26  11Jun2026            

=------------------------------------------------------------------------------=
   JOB DONE.
=------------------------------------------------------------------------------=
