
     Program PWSCF v.7.1 starts on 11Jun2026 at  3:45:14 

     This program is part of the open-source Quantum ESPRESSO suite
     for quantum simulation of materials; please cite
         "P. Giannozzi et al., J. Phys.:Condens. Matter 21 395502 (2009);
         "P. Giannozzi et al., J. Phys.:Condens. Matter 29 465901 (2017);
         "P. Giannozzi et al., J. Chem. Phys. 152 154105 (2020);
          URL http://www.quantum-espresso.org", 
     in publications or presentations arising from this work. More details at
     http://www.quantum-espresso.org/quote

     Parallel version (MPI & OpenMP), running on       7 processor cores
     Number of MPI processes:                 7
     Threads/MPI process:                     1

     MPI processes distributed on     7 nodes
     223835 MiB available memory on the printing compute node when the environment starts
 
     Waiting for input...
     Reading input from standard input
Warning: card &CELL ignored
Warning: card / ignored
Warning: card &FCP ignored
Warning: card / ignored
Warning: card &RISM ignored
Warning: card / ignored

     Current dimensions of program PWSCF are:
     Max number of different atomic species (ntypx) = 10
     Max number of k-points (npk) =  40000
     Max angular momentum in pseudopotentials (lmaxx) =  4

     IMPORTANT: XC functional enforced from input :
     Exchange-correlation= VDW-DF2-B86R
                           (   1   4  26   0   2   0   0)
     Any further DFT definition will be discarded
     Please, verify this is what you really want

     Message from routine setup:
     using ibrav=0 with symmetry is DISCOURAGED, use correct ibrav instead
 
     R & G space division:  proc/nbgrp/npool/nimage =       7
     Subspace diagonalization in iterative solution of the eigenvalue problem:
     a serial algorithm will be used

 
     Parallelization info
     --------------------
     sticks:   dense  smooth     PW     G-vecs:    dense   smooth      PW
     Min          85      34     12                 3565      910     176
     Max          85      35     13                 3571      917     181
     Sum         595     241     85                24969     6387    1247
 
     Using Slab Decomposition
 


     bravais-lattice index     =            0
     lattice parameter (alat)  =       4.6633  a.u.
     unit-cell volume          =     185.0642 (a.u.)^3
     number of atoms/cell      =            4
     number of atomic types    =            1
     number of electrons       =        16.00
     number of Kohn-Sham states=           12
     kinetic-energy cutoff     =      40.0000  Ry
     charge density cutoff     =     400.0000  Ry
     scf convergence threshold =      1.0E-08
     mixing beta               =       0.3000
     number of iterations used =            8  plain     mixing
     Exchange-correlation= VDW-DF2-B86R
                           (   1   4  26   0   2   0   0)

     celldm(1)=   4.663315  celldm(2)=   0.000000  celldm(3)=   0.000000
     celldm(4)=   0.000000  celldm(5)=   0.000000  celldm(6)=   0.000000

     crystal axes: (cart. coord. in units of alat)
               a(1) = (   1.000000   0.000000   0.000000 )  
               a(2) = (  -0.500000   0.866025   0.000000 )  
               a(3) = (   0.000000   0.000000   2.107208 )  

     reciprocal axes: (cart. coord. in units 2 pi/alat)
               b(1) = (  1.000000  0.577350  0.000000 )  
               b(2) = (  0.000000  1.154701  0.000000 )  
               b(3) = (  0.000000  0.000000  0.474562 )  


     PseudoPot. # 1 for C  read from file:
     /home/k0750/k075000/PSPOT/c_pbe_v1.2.uspp.F.UPF
     MD5 check sum: d1aef80898a10debaa0f26306b886e00
     Pseudo is Ultrasoft + core correction, Zval =  4.0
     Generated by new atomic code, or converted to UPF format
     Using radial grid of  721 points,  4 beta functions with: 
                l(1) =   0
                l(2) =   0
                l(3) =   1
                l(4) =   1
     Q(r) pseudized with  8 coefficients,  rinner =    1.100   1.100   1.100


     atomic species   valence    mass     pseudopotential
        C              4.00    12.01100     C ( 1.00)

      8 Sym. Ops., with inversion, found ( 4 have fractional translation)



   Cartesian axes

     site n.     atom                  positions (alat units)
         1           C   tau(   1) = (   0.0000000   0.0000000   1.5804062  )
         2           C   tau(   2) = (   0.0000000   0.0000000   0.5268021  )
         3           C   tau(   3) = (  -0.0000050   0.5773532   1.5804062  )
         4           C   tau(   4) = (   0.5000050   0.2886722   0.5268021  )

     number of k points=   215  Marzari-Vanderbilt smearing, width (Ry)=  0.0100

     Number of k-points >= 100: set verbosity='high' to print them.

     Dense  grid:    24969 G-vectors     FFT dimensions: (  30,  30,  64)

     Smooth grid:     6387 G-vectors     FFT dimensions: (  20,  20,  40)

     Estimated max dynamical RAM per process >       9.98 MB

     Estimated total dynamical RAM >      69.85 MB

     Initial potential from superposition of free atoms

     starting charge      15.9998, renormalised to      16.0000


     %%%%%%%%%%%%%%%%%%%%%%%%%%%%%%%%%%%%%%%%%%%%%%%%%%%%%%%%%%%%%%%%%%%%%%%%
     %                                                                      %
     % You are using vdW-DF, which was implemented by the Thonhauser group. %
     % Please cite the following two papers that made this development      %
     % possible and the two reviews that describe the various versions:     %
     %                                                                      %
     %   T. Thonhauser et al., PRL 115, 136402 (2015).                      %
     %   T. Thonhauser et al., PRB 76, 125112 (2007).                       %
     %   K. Berland et al., Rep. Prog. Phys. 78, 066501 (2015).             %
     %   D.C. Langreth et al., J. Phys.: Condens. Matter 21, 084203 (2009). %
     %                                                                      %
     % If you are calculating stress with vdW-DF, please also cite:         %
     %                                                                      %
     %   R. Sabatini et al., J. Phys.: Condens. Matter 24, 424209 (2012).   %
     %                                                                      %
     %%%%%%%%%%%%%%%%%%%%%%%%%%%%%%%%%%%%%%%%%%%%%%%%%%%%%%%%%%%%%%%%%%%%%%%%

     %%%%%%%%%%%%%%%%%%%%%%%%%%%%%%%%%%%%%%%%%%%%%%%%%%%%%%%%%%%%%%%%%%%%%%%%
     %                                                                      %
     %  vdW-DF NEWS:                                                        %
     %                                                                      %
     %  * vdW-DF3 is now available. DOI: 10.1021/acs.jctc.0c00471           %
     %    use with input_dft = 'vdW-DF3-opt1' or 'vdW-DF3-opt2'             %
     %                                                                      %
     %  * Unscreened and range-separated vdW-DF hybrid functionals          %
     %    DOI: 10.1063/1.4986522 and 10.1088/1361-648X/ac2ad2               %
     %    use with input_dft = 'vdW-DF-cx0' (etc) and 'vdW-DF-ahcx'         %
     %                                                                      %
     %%%%%%%%%%%%%%%%%%%%%%%%%%%%%%%%%%%%%%%%%%%%%%%%%%%%%%%%%%%%%%%%%%%%%%%%


     Starting wfcs are   16 randomized atomic wfcs

     total cpu time spent up to now is       13.2 secs

     Self-consistent Calculation

     iteration #  1     ecut=    40.00 Ry     beta= 0.30
     Davidson diagonalization with overlap
     ethr =  1.00E-02,  avg # of iterations =  2.6

     total cpu time spent up to now is       14.3 secs

     total energy              =     -46.00674333 Ry
     estimated scf accuracy    <       0.33038215 Ry

     iteration #  2     ecut=    40.00 Ry     beta= 0.30
     Davidson diagonalization with overlap
     ethr =  2.06E-03,  avg # of iterations =  1.2

     total cpu time spent up to now is       15.1 secs

     total energy              =     -45.94569279 Ry
     estimated scf accuracy    <       0.12311065 Ry

     iteration #  3     ecut=    40.00 Ry     beta= 0.30
     Davidson diagonalization with overlap
     ethr =  7.69E-04,  avg # of iterations =  2.6

     total cpu time spent up to now is       16.1 secs

     total energy              =     -45.96396059 Ry
     estimated scf accuracy    <       0.00193110 Ry

     iteration #  4     ecut=    40.00 Ry     beta= 0.30
     Davidson diagonalization with overlap
     ethr =  1.21E-05,  avg # of iterations =  5.2

     total cpu time spent up to now is       17.3 secs

     total energy              =     -45.96406476 Ry
     estimated scf accuracy    <       0.00087513 Ry

     iteration #  5     ecut=    40.00 Ry     beta= 0.30
     Davidson diagonalization with overlap
     c_bands:  1 eigenvalues not converged
     ethr =  5.47E-06,  avg # of iterations =  2.3

     total cpu time spent up to now is       18.2 secs

     total energy              =     -45.96416837 Ry
     estimated scf accuracy    <       0.00003117 Ry

     iteration #  6     ecut=    40.00 Ry     beta= 0.30
     Davidson diagonalization with overlap
     c_bands:  1 eigenvalues not converged
     ethr =  1.95E-07,  avg # of iterations =  2.1

     total cpu time spent up to now is       18.9 secs

     total energy              =     -45.96417226 Ry
     estimated scf accuracy    <       0.00000116 Ry

     iteration #  7     ecut=    40.00 Ry     beta= 0.30
     Davidson diagonalization with overlap
     ethr =  7.24E-09,  avg # of iterations =  1.5

     total cpu time spent up to now is       19.6 secs

     total energy              =     -45.96417241 Ry
     estimated scf accuracy    <       0.00000057 Ry

     iteration #  8     ecut=    40.00 Ry     beta= 0.30
     Davidson diagonalization with overlap
     ethr =  3.57E-09,  avg # of iterations =  2.0

     total cpu time spent up to now is       20.5 secs

     total energy              =     -45.96417262 Ry
     estimated scf accuracy    <       0.00000026 Ry

     iteration #  9     ecut=    40.00 Ry     beta= 0.30
     Davidson diagonalization with overlap
     ethr =  1.61E-09,  avg # of iterations =  1.0

     total cpu time spent up to now is       21.2 secs

     total energy              =     -45.96417269 Ry
     estimated scf accuracy    <       0.00000002 Ry

     iteration # 10     ecut=    40.00 Ry     beta= 0.30
     Davidson diagonalization with overlap
     ethr =  1.19E-10,  avg # of iterations =  2.0

     total cpu time spent up to now is       21.9 secs

     End of self-consistent calculation

     Number of k-points >= 100: set verbosity='high' to print the bands.

     the Fermi energy is    10.0420 ev

!    total energy              =     -45.96417273 Ry
     estimated scf accuracy    <          2.9E-09 Ry
     smearing contrib. (-TS)   =       0.00000808 Ry
     internal energy E=F+TS    =     -45.96418081 Ry

     The total energy is F=E-TS. E is the sum of the following terms:
     one-electron contribution =       5.71770379 Ry
     hartree contribution      =       7.05750583 Ry
     xc contribution           =     -14.69837053 Ry
     ewald contribution        =     -44.04101990 Ry

     convergence has been achieved in  10 iterations

     Forces acting on atoms (cartesian axes, Ry/au):

     atom    1 type  1   force =    -0.00002513    0.00001451    0.00000000
     atom    2 type  1   force =     0.00002513   -0.00001451    0.00000000
     atom    3 type  1   force =     0.00002564   -0.00001480    0.00000000
     atom    4 type  1   force =    -0.00002564    0.00001480    0.00000000

     Total force =     0.000059     Total SCF correction =     0.000000


     Computing stress (Cartesian axis) and pressure

          total   stress  (Ry/bohr**3)                   (kbar)     P=       92.36
  -0.00023550  -0.00000012   0.00000000          -34.64       -0.02        0.00
  -0.00000012  -0.00023563   0.00000000           -0.02      -34.66        0.00
   0.00000000   0.00000000   0.00235459            0.00        0.00      346.37


     Writing all to output data dir ./tmp/graphite_d_2p60000.save/
 
     init_run     :     13.03s CPU     13.19s WALL (       1 calls)
     electrons    :      7.93s CPU      8.71s WALL (       1 calls)
     forces       :      0.10s CPU      0.10s WALL (       1 calls)
     stress       :      0.18s CPU      0.22s WALL (       1 calls)

     Called by init_run:
     wfcinit      :      0.31s CPU      0.32s WALL (       1 calls)
     potinit      :     12.69s CPU     12.79s WALL (       1 calls)
     hinit0       :      0.03s CPU      0.06s WALL (       1 calls)

     Called by electrons:
     c_bands      :      6.58s CPU      7.11s WALL (      10 calls)
     sum_band     :      1.06s CPU      1.13s WALL (      10 calls)
     v_of_rho     :     12.94s CPU     13.19s WALL (      11 calls)
     newd         :      0.02s CPU      0.02s WALL (      11 calls)
     mix_rho      :      0.01s CPU      0.01s WALL (      10 calls)
     vdW_kernel   :     12.66s CPU     12.69s WALL (       1 calls)

     Called by c_bands:
     init_us_2    :      0.08s CPU      0.08s WALL (    4945 calls)
     init_us_2:cp :      0.07s CPU      0.08s WALL (    4945 calls)
     cegterg      :      6.22s CPU      6.52s WALL (    2150 calls)

     Called by *egterg:
     cdiaghg      :      0.85s CPU      0.89s WALL (    7000 calls)
     h_psi        :      4.71s CPU      4.95s WALL (    7215 calls)
     s_psi        :      0.09s CPU      0.09s WALL (    7215 calls)
     g_psi        :      0.02s CPU      0.02s WALL (    4850 calls)

     Called by h_psi:
     h_psi:calbec :      0.32s CPU      0.34s WALL (    7215 calls)
     vloc_psi     :      4.25s CPU      4.47s WALL (    7215 calls)
     add_vuspsi   :      0.10s CPU      0.10s WALL (    7215 calls)

     General routines
     calbec       :      0.48s CPU      0.50s WALL (   10440 calls)
     fft          :      0.25s CPU      0.54s WALL (     860 calls)
     ffts         :      0.01s CPU      0.01s WALL (      21 calls)
     fftw         :      4.71s CPU      4.95s WALL (  161554 calls)
     interpolate  :      0.00s CPU      0.01s WALL (      11 calls)
 
     Parallel routines
 
     PWSCF        :     21.61s CPU     23.16s WALL

 
   This run was terminated on:   3:45:37  11Jun2026            

=------------------------------------------------------------------------------=
   JOB DONE.
=------------------------------------------------------------------------------=
