
     Program PWSCF v.7.1 starts on 10Jun2026 at 17:54:40 

     This program is part of the open-source Quantum ESPRESSO suite
     for quantum simulation of materials; please cite
         "P. Giannozzi et al., J. Phys.:Condens. Matter 21 395502 (2009);
         "P. Giannozzi et al., J. Phys.:Condens. Matter 29 465901 (2017);
         "P. Giannozzi et al., J. Chem. Phys. 152 154105 (2020);
          URL http://www.quantum-espresso.org", 
     in publications or presentations arising from this work. More details at
     http://www.quantum-espresso.org/quote

     Parallel version (MPI & OpenMP), running on       7 processor cores
     Number of MPI processes:                 7
     Threads/MPI process:                     1

     MPI processes distributed on     7 nodes
     224645 MiB available memory on the printing compute node when the environment starts
 
     Waiting for input...
     Reading input from standard input

     Current dimensions of program PWSCF are:
     Max number of different atomic species (ntypx) = 10
     Max number of k-points (npk) =  40000
     Max angular momentum in pseudopotentials (lmaxx) =  4
     Message from routine setup:
     using ibrav=0 with symmetry is DISCOURAGED, use correct ibrav instead
 
     K-points division:     npool     =       7
     Subspace diagonalization in iterative solution of the eigenvalue problem:
     a serial algorithm will be used

 
     G-vector sticks info
     --------------------
     sticks:   dense  smooth     PW     G-vecs:    dense   smooth      PW
     Sum        1725     681    221                53715    13517    2373
 
     Using Slab Decomposition
 


     bravais-lattice index     =            0
     lattice parameter (alat)  =       5.5558  a.u.
     unit-cell volume          =     171.4899 (a.u.)^3
     number of atoms/cell      =            2
     number of atomic types    =            2
     number of electrons       =        28.00
     number of Kohn-Sham states=           18
     kinetic-energy cutoff     =      70.0000  Ry
     charge density cutoff     =     700.0000  Ry
     scf convergence threshold =      1.0E-08
     mixing beta               =       0.7000
     number of iterations used =            8  plain     mixing
     energy convergence thresh.=      1.0E-04
     force convergence thresh. =      1.0E-03
     press convergence thresh. =      5.0E-01
     Exchange-correlation=  SLA  PW   PBX  PBC
                           (   1   4   3   4   0   0   0)
     nstep                     =           50


     celldm(1)=   5.555795  celldm(2)=   0.000000  celldm(3)=   0.000000
     celldm(4)=   0.000000  celldm(5)=   0.000000  celldm(6)=   0.000000

     crystal axes: (cart. coord. in units of alat)
               a(1) = (   1.000000   0.000000   0.000000 )  
               a(2) = (   0.000000   1.000000   0.000000 )  
               a(3) = (   0.000000   0.000000   1.000000 )  

     reciprocal axes: (cart. coord. in units 2 pi/alat)
               b(1) = (  1.000000  0.000000  0.000000 )  
               b(2) = (  0.000000  1.000000  0.000000 )  
               b(3) = (  0.000000  0.000000  1.000000 )  


     PseudoPot. # 1 for Ti read from file:
     /home/k0750/k075000/PSPOT/ti_pbe_v1.4.uspp.F.UPF
     MD5 check sum: 88a00a6731bd790ddea75d31a80cb452
     Pseudo is Ultrasoft + core correction, Zval = 12.0
     Generated by new atomic code, or converted to UPF format
     Using radial grid of  851 points,  6 beta functions with: 
                l(1) =   0
                l(2) =   0
                l(3) =   1
                l(4) =   1
                l(5) =   2
                l(6) =   2
     Q(r) pseudized with  6 coefficients,  rinner =    1.000   1.000   1.000
                                                       1.000   1.000

     PseudoPot. # 2 for Fe read from file:
     /home/k0750/k075000/PSPOT/fe_pbe_v1.5.uspp.F.UPF
     MD5 check sum: a130daea23fe5165f5d574ae7f82ed95
     Pseudo is Ultrasoft + core correction, Zval = 16.0
     Generated by new atomic code, or converted to UPF format
     Using radial grid of  861 points,  6 beta functions with: 
                l(1) =   0
                l(2) =   0
                l(3) =   1
                l(4) =   1
                l(5) =   2
                l(6) =   2
     Q(r) pseudized with  8 coefficients,  rinner =    1.000   1.000   1.000
                                                       1.000   1.000

     atomic species   valence    mass     pseudopotential
        Ti            12.00    47.86700     Ti( 1.00)
        Fe            16.00    55.84500     Fe( 1.00)

     48 Sym. Ops., with inversion, found



   Cartesian axes

     site n.     atom                  positions (alat units)
         1           Ti  tau(   1) = (   0.0000000   0.0000000   0.0000000  )
         2           Fe  tau(   2) = (   0.5000000   0.5000000   0.5000000  )

     number of k points=    84  Methfessel-Paxton smearing, width (Ry)=  0.0100
                       cart. coord. in units 2pi/alat
        k(    1) = (   0.0000000   0.0000000   0.0000000), wk =   0.0011574
        k(    2) = (   0.0000000   0.0000000   0.0833333), wk =   0.0069444
        k(    3) = (   0.0000000   0.0000000   0.1666667), wk =   0.0069444
        k(    4) = (   0.0000000   0.0000000   0.2500000), wk =   0.0069444
        k(    5) = (   0.0000000   0.0000000   0.3333333), wk =   0.0069444
        k(    6) = (   0.0000000   0.0000000   0.4166667), wk =   0.0069444
        k(    7) = (   0.0000000   0.0000000  -0.5000000), wk =   0.0034722
        k(    8) = (   0.0000000   0.0833333   0.0833333), wk =   0.0138889
        k(    9) = (   0.0000000   0.0833333   0.1666667), wk =   0.0277778
        k(   10) = (   0.0000000   0.0833333   0.2500000), wk =   0.0277778
        k(   11) = (   0.0000000   0.0833333   0.3333333), wk =   0.0277778
        k(   12) = (   0.0000000   0.0833333   0.4166667), wk =   0.0277778
        k(   13) = (   0.0000000   0.0833333  -0.5000000), wk =   0.0138889
        k(   14) = (   0.0000000   0.1666667   0.1666667), wk =   0.0138889
        k(   15) = (   0.0000000   0.1666667   0.2500000), wk =   0.0277778
        k(   16) = (   0.0000000   0.1666667   0.3333333), wk =   0.0277778
        k(   17) = (   0.0000000   0.1666667   0.4166667), wk =   0.0277778
        k(   18) = (   0.0000000   0.1666667  -0.5000000), wk =   0.0138889
        k(   19) = (   0.0000000   0.2500000   0.2500000), wk =   0.0138889
        k(   20) = (   0.0000000   0.2500000   0.3333333), wk =   0.0277778
        k(   21) = (   0.0000000   0.2500000   0.4166667), wk =   0.0277778
        k(   22) = (   0.0000000   0.2500000  -0.5000000), wk =   0.0138889
        k(   23) = (   0.0000000   0.3333333   0.3333333), wk =   0.0138889
        k(   24) = (   0.0000000   0.3333333   0.4166667), wk =   0.0277778
        k(   25) = (   0.0000000   0.3333333  -0.5000000), wk =   0.0138889
        k(   26) = (   0.0000000   0.4166667   0.4166667), wk =   0.0138889
        k(   27) = (   0.0000000   0.4166667  -0.5000000), wk =   0.0138889
        k(   28) = (   0.0000000  -0.5000000  -0.5000000), wk =   0.0034722
        k(   29) = (   0.0833333   0.0833333   0.0833333), wk =   0.0092593
        k(   30) = (   0.0833333   0.0833333   0.1666667), wk =   0.0277778
        k(   31) = (   0.0833333   0.0833333   0.2500000), wk =   0.0277778
        k(   32) = (   0.0833333   0.0833333   0.3333333), wk =   0.0277778
        k(   33) = (   0.0833333   0.0833333   0.4166667), wk =   0.0277778
        k(   34) = (   0.0833333   0.0833333  -0.5000000), wk =   0.0138889
        k(   35) = (   0.0833333   0.1666667   0.1666667), wk =   0.0277778
        k(   36) = (   0.0833333   0.1666667   0.2500000), wk =   0.0555556
        k(   37) = (   0.0833333   0.1666667   0.3333333), wk =   0.0555556
        k(   38) = (   0.0833333   0.1666667   0.4166667), wk =   0.0555556
        k(   39) = (   0.0833333   0.1666667  -0.5000000), wk =   0.0277778
        k(   40) = (   0.0833333   0.2500000   0.2500000), wk =   0.0277778
        k(   41) = (   0.0833333   0.2500000   0.3333333), wk =   0.0555556
        k(   42) = (   0.0833333   0.2500000   0.4166667), wk =   0.0555556
        k(   43) = (   0.0833333   0.2500000  -0.5000000), wk =   0.0277778
        k(   44) = (   0.0833333   0.3333333   0.3333333), wk =   0.0277778
        k(   45) = (   0.0833333   0.3333333   0.4166667), wk =   0.0555556
        k(   46) = (   0.0833333   0.3333333  -0.5000000), wk =   0.0277778
        k(   47) = (   0.0833333   0.4166667   0.4166667), wk =   0.0277778
        k(   48) = (   0.0833333   0.4166667  -0.5000000), wk =   0.0277778
        k(   49) = (   0.0833333  -0.5000000  -0.5000000), wk =   0.0069444
        k(   50) = (   0.1666667   0.1666667   0.1666667), wk =   0.0092593
        k(   51) = (   0.1666667   0.1666667   0.2500000), wk =   0.0277778
        k(   52) = (   0.1666667   0.1666667   0.3333333), wk =   0.0277778
        k(   53) = (   0.1666667   0.1666667   0.4166667), wk =   0.0277778
        k(   54) = (   0.1666667   0.1666667  -0.5000000), wk =   0.0138889
        k(   55) = (   0.1666667   0.2500000   0.2500000), wk =   0.0277778
        k(   56) = (   0.1666667   0.2500000   0.3333333), wk =   0.0555556
        k(   57) = (   0.1666667   0.2500000   0.4166667), wk =   0.0555556
        k(   58) = (   0.1666667   0.2500000  -0.5000000), wk =   0.0277778
        k(   59) = (   0.1666667   0.3333333   0.3333333), wk =   0.0277778
        k(   60) = (   0.1666667   0.3333333   0.4166667), wk =   0.0555556
        k(   61) = (   0.1666667   0.3333333  -0.5000000), wk =   0.0277778
        k(   62) = (   0.1666667   0.4166667   0.4166667), wk =   0.0277778
        k(   63) = (   0.1666667   0.4166667  -0.5000000), wk =   0.0277778
        k(   64) = (   0.1666667  -0.5000000  -0.5000000), wk =   0.0069444
        k(   65) = (   0.2500000   0.2500000   0.2500000), wk =   0.0092593
        k(   66) = (   0.2500000   0.2500000   0.3333333), wk =   0.0277778
        k(   67) = (   0.2500000   0.2500000   0.4166667), wk =   0.0277778
        k(   68) = (   0.2500000   0.2500000  -0.5000000), wk =   0.0138889
        k(   69) = (   0.2500000   0.3333333   0.3333333), wk =   0.0277778
        k(   70) = (   0.2500000   0.3333333   0.4166667), wk =   0.0555556
        k(   71) = (   0.2500000   0.3333333  -0.5000000), wk =   0.0277778
        k(   72) = (   0.2500000   0.4166667   0.4166667), wk =   0.0277778
        k(   73) = (   0.2500000   0.4166667  -0.5000000), wk =   0.0277778
        k(   74) = (   0.2500000  -0.5000000  -0.5000000), wk =   0.0069444
        k(   75) = (   0.3333333   0.3333333   0.3333333), wk =   0.0092593
        k(   76) = (   0.3333333   0.3333333   0.4166667), wk =   0.0277778
        k(   77) = (   0.3333333   0.3333333  -0.5000000), wk =   0.0138889
        k(   78) = (   0.3333333   0.4166667   0.4166667), wk =   0.0277778
        k(   79) = (   0.3333333   0.4166667  -0.5000000), wk =   0.0277778
        k(   80) = (   0.3333333  -0.5000000  -0.5000000), wk =   0.0069444
        k(   81) = (   0.4166667   0.4166667   0.4166667), wk =   0.0092593
        k(   82) = (   0.4166667   0.4166667  -0.5000000), wk =   0.0138889
        k(   83) = (   0.4166667  -0.5000000  -0.5000000), wk =   0.0069444
        k(   84) = (  -0.5000000  -0.5000000  -0.5000000), wk =   0.0011574

     Dense  grid:    53715 G-vectors     FFT dimensions: (  48,  48,  48)

     Smooth grid:    13517 G-vectors     FFT dimensions: (  30,  30,  30)

     Estimated max dynamical RAM per process >      70.62 MB

     Estimated total dynamical RAM >     415.68 MB

     Check: negative core charge=   -0.000033

     Initial potential from superposition of free atoms

     starting charge      26.0000, renormalised to      28.0000

     negative rho (up, down):  1.331E-03 0.000E+00
     Starting wfcs are   23 randomized atomic wfcs

     total cpu time spent up to now is        2.3 secs

     Self-consistent Calculation

     iteration #  1     ecut=    70.00 Ry     beta= 0.70
     Davidson diagonalization with overlap
     ethr =  1.00E-02,  avg # of iterations =  3.0

     negative rho (up, down):  1.450E-04 0.000E+00

     total cpu time spent up to now is        3.0 secs

     total energy              =    -358.68352809 Ry
     estimated scf accuracy    <      14.84501397 Ry

     iteration #  2     ecut=    70.00 Ry     beta= 0.70
     Davidson diagonalization with overlap
     ethr =  1.00E-02,  avg # of iterations =  4.1

     negative rho (up, down):  3.981E-04 0.000E+00

     total cpu time spent up to now is        3.7 secs

     total energy              =    -369.13024206 Ry
     estimated scf accuracy    <      58.79594231 Ry

     iteration #  3     ecut=    70.00 Ry     beta= 0.70
     Davidson diagonalization with overlap
     ethr =  1.00E-02,  avg # of iterations =  3.0

     negative rho (up, down):  6.482E-04 0.000E+00

     total cpu time spent up to now is        4.3 secs

     total energy              =    -370.23706412 Ry
     estimated scf accuracy    <      14.17723755 Ry

     iteration #  4     ecut=    70.00 Ry     beta= 0.70
     Davidson diagonalization with overlap
     ethr =  1.00E-02,  avg # of iterations =  2.0

     negative rho (up, down):  3.918E-04 0.000E+00

     total cpu time spent up to now is        4.8 secs

     total energy              =    -371.03875053 Ry
     estimated scf accuracy    <       7.04930936 Ry

     iteration #  5     ecut=    70.00 Ry     beta= 0.70
     Davidson diagonalization with overlap
     ethr =  1.00E-02,  avg # of iterations =  1.0

     negative rho (up, down):  1.403E-03 0.000E+00

     total cpu time spent up to now is        5.3 secs

     total energy              =    -367.87758109 Ry
     estimated scf accuracy    <       8.91742942 Ry

     iteration #  6     ecut=    70.00 Ry     beta= 0.70
     Davidson diagonalization with overlap
     ethr =  1.00E-02,  avg # of iterations =  4.6

     negative rho (up, down):  9.196E-04 0.000E+00

     total cpu time spent up to now is        5.9 secs

     total energy              =    -368.97184703 Ry
     estimated scf accuracy    <      22.93210999 Ry

     iteration #  7     ecut=    70.00 Ry     beta= 0.70
     Davidson diagonalization with overlap
     ethr =  1.00E-02,  avg # of iterations =  2.8

     negative rho (up, down):  9.493E-04 0.000E+00

     total cpu time spent up to now is        6.4 secs

     total energy              =    -369.71549104 Ry
     estimated scf accuracy    <       1.21012871 Ry

     iteration #  8     ecut=    70.00 Ry     beta= 0.70
     Davidson diagonalization with overlap
     ethr =  4.32E-03,  avg # of iterations =  1.4

     negative rho (up, down):  9.459E-04 0.000E+00

     total cpu time spent up to now is        6.9 secs

     total energy              =    -369.71477887 Ry
     estimated scf accuracy    <       1.79286762 Ry

     iteration #  9     ecut=    70.00 Ry     beta= 0.70
     Davidson diagonalization with overlap
     ethr =  4.32E-03,  avg # of iterations =  1.0

     negative rho (up, down):  1.254E-03 0.000E+00

     total cpu time spent up to now is        7.3 secs

     total energy              =    -369.92820888 Ry
     estimated scf accuracy    <       1.37141828 Ry

     iteration # 10     ecut=    70.00 Ry     beta= 0.70
     Davidson diagonalization with overlap
     ethr =  4.32E-03,  avg # of iterations =  2.4

     negative rho (up, down):  9.579E-04 0.000E+00

     total cpu time spent up to now is        7.8 secs

     total energy              =    -369.05343956 Ry
     estimated scf accuracy    <      10.90657120 Ry

     iteration # 11     ecut=    70.00 Ry     beta= 0.70
     Davidson diagonalization with overlap
     ethr =  4.32E-03,  avg # of iterations =  3.0

     negative rho (up, down):  9.736E-04 0.000E+00

     total cpu time spent up to now is        8.4 secs

     total energy              =    -369.64643070 Ry
     estimated scf accuracy    <       0.06195283 Ry

     iteration # 12     ecut=    70.00 Ry     beta= 0.70
     Davidson diagonalization with overlap
     ethr =  2.21E-04,  avg # of iterations =  3.3

     negative rho (up, down):  9.770E-04 0.000E+00

     total cpu time spent up to now is        9.0 secs

     total energy              =    -369.65947744 Ry
     estimated scf accuracy    <       0.00818548 Ry

     iteration # 13     ecut=    70.00 Ry     beta= 0.70
     Davidson diagonalization with overlap
     ethr =  2.92E-05,  avg # of iterations =  2.5

     negative rho (up, down):  9.184E-04 0.000E+00

     total cpu time spent up to now is        9.5 secs

     total energy              =    -369.66084564 Ry
     estimated scf accuracy    <       0.00865643 Ry

     iteration # 14     ecut=    70.00 Ry     beta= 0.70
     Davidson diagonalization with overlap
     ethr =  2.92E-05,  avg # of iterations =  3.5

     negative rho (up, down):  8.748E-04 0.000E+00

     total cpu time spent up to now is       10.1 secs

     total energy              =    -369.66158617 Ry
     estimated scf accuracy    <       0.09784628 Ry

     iteration # 15     ecut=    70.00 Ry     beta= 0.70
     Davidson diagonalization with overlap
     ethr =  2.92E-05,  avg # of iterations =  1.0

     negative rho (up, down):  8.695E-04 0.000E+00

     total cpu time spent up to now is       10.5 secs

     total energy              =    -369.65916285 Ry
     estimated scf accuracy    <       0.05061459 Ry

     iteration # 16     ecut=    70.00 Ry     beta= 0.70
     Davidson diagonalization with overlap
     ethr =  2.92E-05,  avg # of iterations =  2.0

     negative rho (up, down):  8.666E-04 0.000E+00

     total cpu time spent up to now is       11.0 secs

     total energy              =    -369.65947975 Ry
     estimated scf accuracy    <       0.01166739 Ry

     iteration # 17     ecut=    70.00 Ry     beta= 0.70
     Davidson diagonalization with overlap
     ethr =  2.92E-05,  avg # of iterations =  1.2

     negative rho (up, down):  8.982E-04 0.000E+00

     total cpu time spent up to now is       11.5 secs

     total energy              =    -369.65875662 Ry
     estimated scf accuracy    <       0.00445372 Ry

     iteration # 18     ecut=    70.00 Ry     beta= 0.70
     Davidson diagonalization with overlap
     ethr =  1.59E-05,  avg # of iterations =  2.8

     negative rho (up, down):  9.053E-04 0.000E+00

     total cpu time spent up to now is       12.0 secs

     total energy              =    -369.65898482 Ry
     estimated scf accuracy    <       0.00053995 Ry

     iteration # 19     ecut=    70.00 Ry     beta= 0.70
     Davidson diagonalization with overlap
     ethr =  1.93E-06,  avg # of iterations =  2.6

     negative rho (up, down):  9.114E-04 0.000E+00

     total cpu time spent up to now is       12.5 secs

     total energy              =    -369.65902188 Ry
     estimated scf accuracy    <       0.00039620 Ry

     iteration # 20     ecut=    70.00 Ry     beta= 0.70
     Davidson diagonalization with overlap
     ethr =  1.42E-06,  avg # of iterations =  1.9

     negative rho (up, down):  9.115E-04 0.000E+00

     total cpu time spent up to now is       13.0 secs

     total energy              =    -369.65904076 Ry
     estimated scf accuracy    <       0.00008452 Ry

     iteration # 21     ecut=    70.00 Ry     beta= 0.70
     Davidson diagonalization with overlap
     ethr =  3.02E-07,  avg # of iterations =  2.2

     negative rho (up, down):  9.116E-04 0.000E+00

     total cpu time spent up to now is       13.5 secs

     total energy              =    -369.65905237 Ry
     estimated scf accuracy    <       0.00000907 Ry

     iteration # 22     ecut=    70.00 Ry     beta= 0.70
     Davidson diagonalization with overlap
     ethr =  3.24E-08,  avg # of iterations =  3.7

     negative rho (up, down):  9.110E-04 0.000E+00

     total cpu time spent up to now is       14.1 secs

     total energy              =    -369.65905684 Ry
     estimated scf accuracy    <       0.00003193 Ry

     iteration # 23     ecut=    70.00 Ry     beta= 0.70
     Davidson diagonalization with overlap
     ethr =  3.24E-08,  avg # of iterations =  1.2

     negative rho (up, down):  9.122E-04 0.000E+00

     total cpu time spent up to now is       14.5 secs

     total energy              =    -369.65905570 Ry
     estimated scf accuracy    <       0.00004750 Ry

     iteration # 24     ecut=    70.00 Ry     beta= 0.70
     Davidson diagonalization with overlap
     ethr =  3.24E-08,  avg # of iterations =  1.1

     negative rho (up, down):  9.121E-04 0.000E+00

     total cpu time spent up to now is       15.0 secs

     total energy              =    -369.65905503 Ry
     estimated scf accuracy    <       0.00006295 Ry

     iteration # 25     ecut=    70.00 Ry     beta= 0.70
     Davidson diagonalization with overlap
     ethr =  3.24E-08,  avg # of iterations =  2.1

     negative rho (up, down):  9.108E-04 0.000E+00

     total cpu time spent up to now is       15.5 secs

     total energy              =    -369.65904779 Ry
     estimated scf accuracy    <       0.00010179 Ry

     iteration # 26     ecut=    70.00 Ry     beta= 0.70
     Davidson diagonalization with overlap
     ethr =  3.24E-08,  avg # of iterations =  2.1

     negative rho (up, down):  9.093E-04 0.000E+00

     total cpu time spent up to now is       16.0 secs

     total energy              =    -369.65904598 Ry
     estimated scf accuracy    <       0.00003533 Ry

     iteration # 27     ecut=    70.00 Ry     beta= 0.70
     Davidson diagonalization with overlap
     ethr =  3.24E-08,  avg # of iterations =  2.7

     negative rho (up, down):  9.079E-04 0.000E+00

     total cpu time spent up to now is       16.5 secs

     total energy              =    -369.65904556 Ry
     estimated scf accuracy    <       0.00000538 Ry

     iteration # 28     ecut=    70.00 Ry     beta= 0.70
     Davidson diagonalization with overlap
     ethr =  1.92E-08,  avg # of iterations =  3.1

     negative rho (up, down):  9.083E-04 0.000E+00

     total cpu time spent up to now is       17.0 secs

     total energy              =    -369.65904647 Ry
     estimated scf accuracy    <       0.00000097 Ry

     iteration # 29     ecut=    70.00 Ry     beta= 0.70
     Davidson diagonalization with overlap
     ethr =  3.47E-09,  avg # of iterations =  1.3

     negative rho (up, down):  9.084E-04 0.000E+00

     total cpu time spent up to now is       17.5 secs

     End of self-consistent calculation

          k = 0.0000 0.0000 0.0000 (  1743 PWs)   bands (ev):

   -69.2563 -39.1974 -35.3184 -35.3184 -35.3184 -15.2918 -15.2918 -15.2918
    10.1020  13.8151  13.8151  16.5988  16.5988  16.5988  18.9446  18.9446
    20.8852  20.8852

          k = 0.0000 0.0000 0.0833 (  1723 PWs)   bands (ev):

   -69.2561 -39.1956 -35.3205 -35.3181 -35.3181 -15.3164 -15.2904 -15.2904
    10.2473  13.8847  13.8907  16.5879  16.5879  16.6305  18.8555  18.9782
    20.6715  20.6715

          k = 0.0000 0.0000 0.1667 (  1723 PWs)   bands (ev):

   -69.2554 -39.1907 -35.3263 -35.3172 -35.3172 -15.3832 -15.2863 -15.2863
    10.6714  14.0893  14.0919  16.5616  16.5616  16.7204  18.5964  19.0585
    20.1570  20.1570

          k = 0.0000 0.0000 0.2500 (  1707 PWs)   bands (ev):

   -69.2546 -39.1841 -35.3341 -35.3160 -35.3160 -15.4734 -15.2808 -15.2808
    11.3380  14.3414  14.4151  16.5357  16.5357  16.8521  18.1938  19.1124
    19.5587  19.5587

          k = 0.0000 0.0000 0.3333 (  1703 PWs)   bands (ev):

   -69.2537 -39.1774 -35.3419 -35.3147 -35.3147 -15.5626 -15.2753 -15.2753
    12.1824  14.5081  14.8316  16.5248  16.5248  16.9966  17.6977  19.0065
    19.0295  19.0295

          k = 0.0000 0.0000 0.4167 (  1698 PWs)   bands (ev):

   -69.2531 -39.1725 -35.3475 -35.3139 -35.3139 -15.6272 -15.2712 -15.2712
    13.0950  14.4183  15.2650  16.5301  16.5301  17.1127  17.2044  18.6663
    18.6663  18.7127

          k = 0.0000 0.0000-0.5000 (  1686 PWs)   bands (ev):

   -69.2528 -39.1708 -35.3496 -35.3135 -35.3135 -15.6507 -15.2697 -15.2697
    13.7970  14.0388  15.4940  16.5358  16.5358  16.9530  17.1578  18.5359
    18.5359  18.5394

          k = 0.0000 0.0833 0.0833 (  1723 PWs)   bands (ev):

   -69.2558 -39.1938 -35.3213 -35.3192 -35.3178 -15.3174 -15.3121 -15.2888
    10.3903  13.9524  13.9658  16.5187  16.5714  16.7125  18.8404  18.9530
    20.4307  20.4576

          k = 0.0000 0.0833 0.1667 (  1716 PWs)   bands (ev):

   -69.2552 -39.1886 -35.3267 -35.3191 -35.3169 -15.3813 -15.3099 -15.2846
    10.8067  14.1404  14.1755  16.4490  16.5298  16.8188  18.6355  19.0221
    19.9516  19.9659

          k = 0.0000 0.0833 0.2500 (  1709 PWs)   bands (ev):

   -69.2543 -39.1816 -35.3346 -35.3184 -35.3157 -15.4707 -15.3038 -15.2789
    11.4592  14.3943  14.4796  16.4053  16.4808  16.9123  18.2834  19.0627
    19.4185  19.4729

          k = 0.0000 0.0833 0.3333 (  1708 PWs)   bands (ev):

   -69.2535 -39.1746 -35.3425 -35.3176 -35.3145 -15.5591 -15.2976 -15.2732
    12.2814  14.5580  14.8676  16.3984  16.4369  16.9571  17.8568  18.7537
    19.0885  19.2002

          k = 0.0000 0.0833 0.4167 (  1704 PWs)   bands (ev):

   -69.2528 -39.1695 -35.3483 -35.3170 -35.3136 -15.6231 -15.2931 -15.2690
    13.1626  14.4584  15.2703  16.3865  16.4246  16.9373  17.4722  18.4095
    18.8785  19.0093

          k = 0.0000 0.0833-0.5000 (  1682 PWs)   bands (ev):

   -69.2526 -39.1676 -35.3504 -35.3168 -35.3133 -15.6464 -15.2914 -15.2674
    13.8244  14.0966  15.4821  16.3353  16.4457  16.9110  17.3134  18.2699
    18.8197  18.8911

          k = 0.0000 0.1667 0.1667 (  1715 PWs)   bands (ev):

   -69.2546 -39.1828 -35.3292 -35.3230 -35.3160 -15.3829 -15.3670 -15.2801
    11.1986  14.2789  14.4079  16.3002  16.4525  16.9135  18.6606  18.9830
    19.4791  19.6281

          k = 0.0000 0.1667 0.2500 (  1702 PWs)   bands (ev):

   -69.2537 -39.1749 -35.3362 -35.3247 -35.3148 -15.4634 -15.3659 -15.2738
    11.8044  14.4583  14.7331  16.1898  16.3669  16.9036  18.4893  18.9001
    19.1536  19.3723

          k = 0.0000 0.1667 0.3333 (  1696 PWs)   bands (ev):

   -69.2529 -39.1669 -35.3443 -35.3252 -35.3137 -15.5495 -15.3582 -15.2675
    12.5493  14.5687  15.0886  16.1429  16.3111  16.7690  18.1986  18.5269
    19.2482  19.2887

          k = 0.0000 0.1667 0.4167 (  1693 PWs)   bands (ev):

   -69.2522 -39.1611 -35.3503 -35.3255 -35.3128 -15.6120 -15.3524 -15.2628
    13.3158  14.4592  15.4095  16.1683  16.3025  16.5757  17.9499  18.2567
    19.2639  19.3314

          k = 0.0000 0.1667-0.5000 (  1704 PWs)   bands (ev):

   -69.2520 -39.1590 -35.3526 -35.3256 -35.3125 -15.6348 -15.3503 -15.2612
    13.8351  14.1830  15.5583  16.2156  16.3041  16.4611  17.8855  18.1134
    19.2380  19.3722

          k = 0.0000 0.2500 0.2500 (  1708 PWs)   bands (ev):

   -69.2529 -39.1657 -35.3400 -35.3317 -35.3137 -15.4622 -15.4412 -15.2667
    12.3169  14.4971  15.1114  16.0048  16.2844  16.7297  18.6185  18.6771
    19.0352  19.4193

          k = 0.0000 0.2500 0.3333 (  1694 PWs)   bands (ev):

   -69.2520 -39.1564 -35.3470 -35.3354 -35.3126 -15.5365 -15.4400 -15.2596
    12.9015  14.4591  15.5150  15.8933  16.3184  16.4579  18.4025  18.6042
    19.1761  19.6014

          k = 0.0000 0.2500 0.4167 (  1677 PWs)   bands (ev):

   -69.2514 -39.1497 -35.3532 -35.3371 -35.3118 -15.5967 -15.4327 -15.2545
    13.4341  14.3098  15.8097  15.8775  16.1924  16.5273  18.1709  18.5195
    19.3625  19.8238

          k = 0.0000 0.2500-0.5000 (  1690 PWs)   bands (ev):

   -69.2512 -39.1472 -35.3555 -35.3376 -35.3115 -15.6188 -15.4299 -15.2526
    13.7216  14.1558  15.9084  15.9308  16.0373  16.6995  18.0429  18.4715
    19.4493  19.9415

          k = 0.0000 0.3333 0.3333 (  1682 PWs)   bands (ev):

   -69.2512 -39.1459 -35.3508 -35.3445 -35.3115 -15.5300 -15.5145 -15.2518
    13.2244  14.2886  15.7149  16.0229  16.1285  16.5361  18.4372  18.8968
    19.0689  19.9483

          k = 0.0000 0.3333 0.4167 (  1681 PWs)   bands (ev):

   -69.2505 -39.1382 -35.3561 -35.3486 -35.3108 -15.5815 -15.5120 -15.2461
    13.4447  14.1202  15.6409  15.8592  16.4082  17.0047  18.3074  18.9467
    19.2549  20.2593

          k = 0.0000 0.3333-0.5000 (  1686 PWs)   bands (ev):

   -69.2503 -39.1354 -35.3586 -35.3496 -35.3105 -15.6028 -15.5087 -15.2440
    13.5301  14.0407  15.6715  15.7082  16.5300  17.4303  18.0233  18.9820
    19.4007  20.4225

          k = 0.0000 0.4167 0.4167 (  1688 PWs)   bands (ev):

   -69.2499 -39.1297 -35.3587 -35.3566 -35.3100 -15.5726 -15.5674 -15.2399
    13.3977  13.9843  15.5070  15.6192  17.0346  17.5086  18.5485  18.9465
    19.2626  20.5840

          k = 0.0000 0.4167-0.5000 (  1680 PWs)   bands (ev):

   -69.2497 -39.1266 -35.3608 -35.3584 -35.3097 -15.5910 -15.5659 -15.2376
    13.3717  13.9365  15.4944  15.5020  17.2692  18.0401  18.2339  19.0450
    19.3108  20.7446

          k = 0.0000-0.5000-0.5000 (  1692 PWs)   bands (ev):

   -69.2495 -39.1234 -35.3616 -35.3616 -35.3095 -15.5867 -15.5867 -15.2354
    13.3124  13.8968  15.4319  15.4319  17.7038  18.1332  18.6576  18.6576
    19.3898  20.8580

          k = 0.0833 0.0833 0.0833 (  1716 PWs)   bands (ev):

   -69.2556 -39.1918 -35.3209 -35.3209 -35.3181 -15.3179 -15.3106 -15.3106
    10.5311  14.0295  14.0295  16.5007  16.5007  16.7820  18.8830  18.8830
    20.0609  20.6540

          k = 0.0833 0.0833 0.1667 (  1711 PWs)   bands (ev):

   -69.2550 -39.1864 -35.3268 -35.3200 -35.3179 -15.3793 -15.3097 -15.3065
    10.9408  14.2161  14.2339  16.4053  16.4526  16.8704  18.6796  18.9866
    19.6038  20.1368

          k = 0.0833 0.0833 0.2500 (  1705 PWs)   bands (ev):

   -69.2541 -39.1791 -35.3349 -35.3188 -35.3175 -15.4680 -15.3028 -15.3009
    11.5808  14.4823  14.5102  16.3451  16.3869  16.9060  18.3663  19.0128
    19.2877  19.5441

          k = 0.0833 0.0833 0.3333 (  1709 PWs)   bands (ev):

   -69.2533 -39.1718 -35.3430 -35.3176 -35.3171 -15.5557 -15.2957 -15.2953
    12.3831  14.6331  14.8796  16.3089  16.3471  16.8666  17.9941  18.7642
    19.0306  19.3029

          k = 0.0833 0.0833 0.4167 (  1705 PWs)   bands (ev):

   -69.2526 -39.1665 -35.3489 -35.3168 -35.3167 -15.6192 -15.2912 -15.2906
    13.2364  14.5163  15.2555  16.2072  16.4237  16.7918  17.6645  18.4807
    18.6872  19.3516

          k = 0.0833 0.0833-0.5000 (  1696 PWs)   bands (ev):

   -69.2524 -39.1645 -35.3511 -35.3166 -35.3163 -15.6423 -15.2896 -15.2887
    13.8647  14.1636  15.4536  16.1276  16.4959  16.7439  17.5270  18.3281
    18.5664  19.3811

          k = 0.0833 0.1667 0.1667 (  1707 PWs)   bands (ev):

   -69.2544 -39.1805 -35.3288 -35.3237 -35.3180 -15.3804 -15.3655 -15.3031
    11.3288  14.3637  14.4542  16.2705  16.3616  16.8895  18.7181  18.9525
    19.2738  19.8705

          k = 0.0833 0.1667 0.2500 (  1701 PWs)   bands (ev):

   -69.2535 -39.1723 -35.3362 -35.3249 -35.3174 -15.4607 -15.3639 -15.2965
    11.9270  14.5541  14.7585  16.1539  16.2705  16.7860  18.5600  18.9337
    19.1787  19.4480

          k = 0.0833 0.1667 0.3333 (  1700 PWs)   bands (ev):

   -69.2526 -39.1642 -35.3445 -35.3251 -35.3166 -15.5463 -15.3561 -15.2898
    12.6592  14.6761  15.0701  16.0875  16.2200  16.6201  18.3133  18.6463
    19.1157  19.4692

          k = 0.0833 0.1667 0.4167 (  1697 PWs)   bands (ev):

   -69.2520 -39.1582 -35.3508 -35.3252 -35.3159 -15.6085 -15.3503 -15.2848
    13.4074  14.5544  15.3479  16.0206  16.2955  16.4974  18.0901  18.3397
    18.9009  19.7781

          k = 0.0833 0.1667-0.5000 (  1694 PWs)   bands (ev):

   -69.2518 -39.1560 -35.3530 -35.3253 -35.3157 -15.6311 -15.3482 -15.2830
    13.9091  14.2735  15.4841  15.9715  16.3950  16.4364  18.0146  18.1748
    18.7964  19.9651

          k = 0.0833 0.2500 0.2500 (  1697 PWs)   bands (ev):

   -69.2526 -39.1630 -35.3396 -35.3320 -35.3165 -15.4590 -15.4396 -15.2892
    12.4403  14.5984  15.1292  15.9714  16.1831  16.5462  18.6765  18.8704
    19.0248  19.4987

          k = 0.0833 0.2500 0.3333 (  1693 PWs)   bands (ev):

   -69.2518 -39.1537 -35.3468 -35.3354 -35.3156 -15.5337 -15.4379 -15.2819
    13.0222  14.5654  15.4961  15.8567  16.2087  16.3095  18.5159  18.6835
    19.1212  19.7734

          k = 0.0833 0.2500 0.4167 (  1687 PWs)   bands (ev):

   -69.2512 -39.1469 -35.3533 -35.3368 -35.3149 -15.5939 -15.4307 -15.2765
    13.5454  14.4148  15.6994  15.8237  16.1467  16.4578  18.2381  18.6004
    19.0834  20.2018

          k = 0.0833 0.2500-0.5000 (  1692 PWs)   bands (ev):

   -69.2509 -39.1444 -35.3557 -35.3373 -35.3146 -15.6158 -15.4280 -15.2746
    13.8229  14.2622  15.7351  15.8392  16.0906  16.6619  18.0722  18.5707
    19.0244  20.5140

          k = 0.0833 0.3333 0.3333 (  1695 PWs)   bands (ev):

   -69.2509 -39.1433 -35.3504 -35.3446 -35.3146 -15.5271 -15.5128 -15.2741
    13.3497  14.3931  15.6861  16.0028  16.0157  16.4025  18.4582  18.9916
    19.0088  20.1618

          k = 0.0833 0.3333 0.4167 (  1687 PWs)   bands (ev):

   -69.2503 -39.1356 -35.3559 -35.3484 -35.3139 -15.5792 -15.5102 -15.2683
    13.5631  14.2261  15.6108  15.7854  16.3663  16.8721  18.2967  18.9491
    19.1212  20.5889

          k = 0.0833 0.3333-0.5000 (  1692 PWs)   bands (ev):

   -69.2501 -39.1327 -35.3584 -35.3492 -35.3136 -15.6005 -15.5069 -15.2662
    13.6416  14.1496  15.6328  15.6567  16.4742  17.2852  18.0328  19.0304
    19.0691  20.7000

          k = 0.0833 0.4167 0.4167 (  1688 PWs)   bands (ev):

   -69.2497 -39.1272 -35.3583 -35.3563 -35.3131 -15.5706 -15.5658 -15.2622
    13.5140  14.0918  15.4858  15.5835  16.9795  17.3579  18.4235  18.7360
    19.3294  20.8165

          k = 0.0833 0.4167-0.5000 (  1682 PWs)   bands (ev):

   -69.2495 -39.1242 -35.3604 -35.3580 -35.3128 -15.5892 -15.5642 -15.2600
    13.4864  14.0448  15.4724  15.4780  17.2048  17.9603  18.0315  18.7259
    19.3829  20.8919

          k = 0.0833-0.5000-0.5000 (  1692 PWs)   bands (ev):

   -69.2492 -39.1210 -35.3612 -35.3612 -35.3125 -15.5851 -15.5851 -15.2577
    13.4278  14.0047  15.4139  15.4139  17.7064  18.1343  18.2775  18.2775
    19.4619  21.3361

          k = 0.1667 0.1667 0.1667 (  1683 PWs)   bands (ev):

   -69.2537 -39.1741 -35.3278 -35.3278 -35.3212 -15.3780 -15.3612 -15.3612
    11.7038  14.5878  14.5878  16.1893  16.1893  16.7373  18.8632  18.8632
    19.1872  20.0945

          k = 0.1667 0.1667 0.2500 (  1696 PWs)   bands (ev):

   -69.2529 -39.1654 -35.3363 -35.3265 -35.3229 -15.4535 -15.3610 -15.3554
    12.2758  14.7911  14.8490  16.0550  16.0760  16.4787  18.7256  18.9643
    19.3456  19.5142

          k = 0.1667 0.1667 0.3333 (  1688 PWs)   bands (ev):

   -69.2520 -39.1567 -35.3453 -35.3252 -35.3239 -15.5377 -15.3511 -15.3496
    12.9606  14.9472  15.0329  15.9493  16.0367  16.3108  18.5666  18.8071
    19.0226  19.7600

          k = 0.1667 0.1667 0.4167 (  1705 PWs)   bands (ev):

   -69.2514 -39.1503 -35.3519 -35.3246 -35.3243 -15.5990 -15.3454 -15.3436
    13.6350  14.7399  15.2634  15.8229  16.1532  16.3489  18.4318  18.4418
    18.7000  20.2852

          k = 0.1667 0.1667-0.5000 (  1688 PWs)   bands (ev):

   -69.2512 -39.1479 -35.3544 -35.3249 -35.3239 -15.6213 -15.3438 -15.3409
    14.0623  14.4599  15.3810  15.7485  16.2167  16.4456  18.2132  18.3767
    18.5890  20.4743

          k = 0.1667 0.2500 0.2500 (  1695 PWs)   bands (ev):

   -69.2520 -39.1559 -35.3386 -35.3332 -35.3240 -15.4503 -15.4353 -15.3503
    12.7901  14.8768  15.1773  15.8824  15.9595  16.1422  18.8022  18.9823
    19.2914  19.7197

          k = 0.1667 0.2500 0.3333 (  1698 PWs)   bands (ev):

   -69.2512 -39.1463 -35.3466 -35.3354 -35.3238 -15.5261 -15.4322 -15.3425
    13.3613  14.8576  15.4212  15.7643  15.9540  16.0118  18.6555  18.8546
    19.1089  20.1699

          k = 0.1667 0.2500 0.4167 (  1696 PWs)   bands (ev):

   -69.2505 -39.1393 -35.3536 -35.3361 -35.3234 -15.5860 -15.4253 -15.3366
    13.8494  14.6845  15.4682  15.6887  16.0076  16.3024  18.3401  18.7001
    18.9325  20.4726

          k = 0.1667 0.2500-0.5000 (  1704 PWs)   bands (ev):

   -69.2503 -39.1368 -35.3562 -35.3363 -35.3232 -15.6078 -15.4227 -15.3344
    14.0938  14.5261  15.4852  15.6584  16.0405  16.5371  18.1111  18.6419
    18.8615  20.5507

          k = 0.1667 0.3333 0.3333 (  1693 PWs)   bands (ev):

   -69.2503 -39.1360 -35.3493 -35.3448 -35.3230 -15.5194 -15.5084 -15.3345
    13.7094  14.6746  15.6114  15.7631  15.9397  16.0717  18.5048  18.8292
    19.2650  20.3644

          k = 0.1667 0.3333 0.4167 (  1693 PWs)   bands (ev):

   -69.2497 -39.1284 -35.3553 -35.3476 -35.3223 -15.5729 -15.5051 -15.3286
    13.9017  14.5080  15.5349  15.6212  16.2090  16.5584  18.2858  18.6539
    19.3258  20.5808

          k = 0.1667 0.3333-0.5000 (  1706 PWs)   bands (ev):

   -69.2495 -39.1256 -35.3581 -35.3482 -35.3221 -15.5943 -15.5021 -15.3265
    13.9588  14.4383  15.5348  15.5434  16.2951  16.9340  18.0356  18.5998
    19.3239  20.6874

          k = 0.1667 0.4167 0.4167 (  1693 PWs)   bands (ev):

   -69.2491 -39.1203 -35.3571 -35.3556 -35.3215 -15.5650 -15.5614 -15.3228
    13.8492  14.3821  15.4327  15.5002  16.7948  16.9283  18.2909  18.3612
    19.5532  20.8098

          k = 0.1667 0.4167-0.5000 (  1690 PWs)   bands (ev):

   -69.2489 -39.1174 -35.3595 -35.3568 -35.3212 -15.5843 -15.5597 -15.3206
    13.8169  14.3383  15.4195  15.4198  16.9623  17.3855  17.9755  18.3380
    19.6069  20.9525

          k = 0.1667-0.5000-0.5000 (  1696 PWs)   bands (ev):

   -69.2486 -39.1144 -35.3600 -35.3600 -35.3209 -15.5807 -15.5807 -15.3185
    13.7615  14.2991  15.3699  15.3699  17.5779  17.5779  17.7135  18.1289
    19.6817  22.3309

          k = 0.2500 0.2500 0.2500 (  1713 PWs)   bands (ev):

   -69.2512 -39.1460 -35.3371 -35.3371 -35.3319 -15.4421 -15.4293 -15.4293
    13.2998  15.2410  15.2410  15.7166  15.7658  15.7658  18.8768  18.8768
    19.6880  19.6880

          k = 0.2500 0.2500 0.3333 (  1687 PWs)   bands (ev):

   -69.2503 -39.1362 -35.3465 -35.3357 -35.3342 -15.5159 -15.4253 -15.4233
    13.8354  15.2015  15.3023  15.6531  15.7116  15.7843  18.7017  18.7132
    19.4318  20.0955

          k = 0.2500 0.2500 0.4167 (  1696 PWs)   bands (ev):

   -69.2497 -39.1290 -35.3541 -35.3353 -35.3347 -15.5752 -15.4189 -15.4166
    14.2229  14.9047  15.3466  15.5706  15.8360  16.1818  18.3291  18.5432
    19.3181  20.4519

          k = 0.2500 0.2500-0.5000 (  1690 PWs)   bands (ev):

   -69.2495 -39.1263 -35.3569 -35.3356 -35.3343 -15.5968 -15.4173 -15.4134
    14.3779  14.7568  15.3639  15.5390  15.9178  16.4299  18.0690  18.4834
    19.2858  20.5855

          k = 0.2500 0.3333 0.3333 (  1691 PWs)   bands (ev):

   -69.2495 -39.1260 -35.3477 -35.3451 -35.3343 -15.5087 -15.5024 -15.4162
    14.2481  15.0067  15.5197  15.5464  15.6968  15.8315  18.5074  18.5867
    19.6785  20.2215

          k = 0.2500 0.3333 0.4167 (  1703 PWs)   bands (ev):

   -69.2489 -39.1185 -35.3547 -35.3465 -35.3338 -15.5644 -15.4981 -15.4103
    14.3997  14.8397  15.4455  15.5021  15.9122  16.2499  18.2282  18.4139
    19.7177  20.5624

          k = 0.2500 0.3333-0.5000 (  1694 PWs)   bands (ev):

   -69.2487 -39.1158 -35.3576 -35.3467 -35.3336 -15.5857 -15.4955 -15.4080
    14.4126  14.7819  15.4244  15.4708  16.0196  16.5441  17.9880  18.3683
    19.7185  20.7196

          k = 0.2500 0.4167 0.4167 (  1697 PWs)   bands (ev):

   -69.2483 -39.1109 -35.3555 -35.3546 -35.3330 -15.5575 -15.5554 -15.4047
    14.3558  14.7570  15.3749  15.4361  16.3998  16.4749  18.0950  18.2138
    19.9319  20.8346

          k = 0.2500 0.4167-0.5000 (  1694 PWs)   bands (ev):

   -69.2480 -39.1081 -35.3581 -35.3552 -35.3327 -15.5776 -15.5535 -15.4027
    14.3179  14.7248  15.3647  15.3724  16.5352  16.7863  17.8800  18.1797
    19.9818  20.9955

          k = 0.2500-0.5000-0.5000 (  1692 PWs)   bands (ev):

   -69.2478 -39.1053 -35.3583 -35.3583 -35.3323 -15.5747 -15.5747 -15.4007
    14.2727  14.6977  15.3262  15.3262  16.8971  16.8971  17.7233  18.0923
    20.0516  23.5056

          k = 0.3333 0.3333 0.3333 (  1709 PWs)   bands (ev):

   -69.2487 -39.1160 -35.3462 -35.3462 -35.3449 -15.4989 -15.4963 -15.4963
    14.7881  15.0737  15.4455  15.4455  15.6918  15.6918  18.3798  18.3798
    20.1768  20.1768

          k = 0.3333 0.3333 0.4167 (  1702 PWs)   bands (ev):

   -69.2480 -39.1087 -35.3541 -35.3456 -35.3451 -15.5558 -15.4919 -15.4902
    14.8337  15.0359  15.4182  15.5540  15.6532  16.0510  18.1074  18.2557
    20.1703  20.6274

          k = 0.3333 0.3333-0.5000 (  1694 PWs)   bands (ev):

   -69.2478 -39.1060 -35.3572 -35.3457 -35.3447 -15.5772 -15.4902 -15.4873
    14.7877  14.9896  15.4482  15.4619  15.8084  16.2926  17.9161  18.2160
    20.1712  20.8142

          k = 0.3333 0.4167 0.4167 (  1693 PWs)   bands (ev):

   -69.2474 -39.1015 -35.3539 -35.3536 -35.3444 -15.5499 -15.5493 -15.4858
    14.8834  15.0976  15.3472  15.5044  15.9368  16.1021  17.9642  18.0961
    20.4235  20.8666

          k = 0.3333 0.4167-0.5000 (  1694 PWs)   bands (ev):

   -69.2472 -39.0988 -35.3568 -35.3536 -35.3441 -15.5710 -15.5474 -15.4839
    14.8775  15.0567  15.3842  15.3896  16.0784  16.2850  17.8263  18.0554
    20.4672  21.0348

          k = 0.3333-0.5000-0.5000 (  1700 PWs)   bands (ev):

   -69.2470 -39.0962 -35.3567 -35.3567 -35.3437 -15.5687 -15.5687 -15.4821
    14.8807  15.0869  15.3170  15.3170  16.3262  16.3262  17.7331  17.9941
    20.5375  21.1897

          k = 0.4167 0.4167 0.4167 (  1691 PWs)   bands (ev):

   -69.2468 -39.0945 -35.3530 -35.3527 -35.3527 -15.5449 -15.5449 -15.5441
    15.0818  15.3807  15.3807  15.6875  15.7776  15.7776  17.9106  17.9106
    20.8915  20.8915

          k = 0.4167 0.4167-0.5000 (  1684 PWs)   bands (ev):

   -69.2466 -39.0920 -35.3559 -35.3526 -35.3523 -15.5660 -15.5433 -15.5423
    15.2143  15.2310  15.4547  15.5989  15.7563  15.9706  17.7929  17.8963
    20.9007  21.0950

          k = 0.4167-0.5000-0.5000 (  1688 PWs)   bands (ev):

   -69.2464 -39.0895 -35.3555 -35.3555 -35.3520 -15.5642 -15.5642 -15.5411
    15.3620  15.3732  15.3732  15.4363  15.8983  15.8983  17.7403  17.8379
    21.0051  21.2049

          k =-0.5000-0.5000-0.5000 (  1640 PWs)   bands (ev):

   -69.2462 -39.0870 -35.3550 -35.3550 -35.3550 -15.5626 -15.5626 -15.5626
    15.4601  15.4601  15.4601  15.6837  15.6837  15.6837  17.7430  17.7430
    21.2105  26.1569

     the Fermi energy is    17.5987 ev

!    total energy              =    -369.65904654 Ry
     estimated scf accuracy    <          7.3E-09 Ry
     smearing contrib. (-TS)   =       0.00005988 Ry
     internal energy E=F+TS    =    -369.65910642 Ry

     The total energy is F=E-TS. E is the sum of the following terms:
     one-electron contribution =    -155.29223979 Ry
     hartree contribution      =      92.61190185 Ry
     xc contribution           =     -47.27471991 Ry
     ewald contribution        =    -259.70404858 Ry

     convergence has been achieved in  29 iterations

     negative rho (up, down):  9.084E-04 0.000E+00

     Forces acting on atoms (cartesian axes, Ry/au):

     atom    1 type  1   force =     0.00000000    0.00000000    0.00000000
     atom    2 type  2   force =     0.00000000    0.00000000    0.00000000

     Total force =     0.000000     Total SCF correction =     0.000000


     Computing stress (Cartesian axis) and pressure


     negative rho (up, down):  9.084E-04 0.000E+00
          total   stress  (Ry/bohr**3)                   (kbar)     P=       26.46
   0.00017990   0.00000000   0.00000000           26.46        0.00        0.00
   0.00000000   0.00017990   0.00000000            0.00       26.46        0.00
   0.00000000   0.00000000   0.00017990            0.00        0.00       26.46


     BFGS Geometry Optimization
     Energy error            =      0.0E+00 Ry
     Gradient error          =      2.6E-31 Ry/Bohr
     Cell gradient error     =      2.6E+01 kbar

     number of scf cycles    =   1
     number of bfgs steps    =   0

     enthalpy           new  =    -369.6590465402 Ry

     new trust radius        =       0.0117795085 bohr
     new conv_thr            =       0.0000000100 Ry

     new unit-cell volume =    173.81420 a.u.^3 (    25.75661 Ang^3 )
     density =      6.68636 g/cm^3

CELL_PARAMETERS (angstrom)
   2.953222854   0.000000000   0.000000000
   0.000000000   2.953222854   0.000000000
   0.000000000   0.000000000   2.953222854

ATOMIC_POSITIONS (crystal)
Ti            0.0000000000        0.0000000000        0.0000000000
Fe            0.5000000000        0.5000000000        0.5000000000



     Writing config-only to output data dir ./out/FeTi.save/
     NEW-OLD atomic charge density approx. for the potential

     Check: negative core charge=   -0.000034

     negative rho (up, down):  9.325E-04 0.000E+00
     extrapolated charge   28.34768, renormalised to   28.00000

     total cpu time spent up to now is       22.1 secs

     Self-consistent Calculation

     iteration #  1     ecut=    70.00 Ry     beta= 0.70
     Davidson diagonalization with overlap
     ethr =  1.00E-06,  avg # of iterations =  8.5

     negative rho (up, down):  4.454E-04 0.000E+00

     total cpu time spent up to now is       23.2 secs

     total energy              =    -368.18398124 Ry
     estimated scf accuracy    <       1.59884182 Ry

     iteration #  2     ecut=    70.00 Ry     beta= 0.70
     Davidson diagonalization with overlap
     ethr =  5.71E-03,  avg # of iterations =  3.7

     negative rho (up, down):  7.184E-04 0.000E+00

     total cpu time spent up to now is       23.8 secs

     total energy              =    -369.19586445 Ry
     estimated scf accuracy    <      24.13808660 Ry

     iteration #  3     ecut=    70.00 Ry     beta= 0.70
     Davidson diagonalization with overlap
     ethr =  5.71E-03,  avg # of iterations =  2.6

     negative rho (up, down):  8.454E-04 0.000E+00

     total cpu time spent up to now is       24.4 secs

     total energy              =    -369.69744753 Ry
     estimated scf accuracy    <       5.81930181 Ry

     iteration #  4     ecut=    70.00 Ry     beta= 0.70
     Davidson diagonalization with overlap
     ethr =  5.71E-03,  avg # of iterations =  1.1

     negative rho (up, down):  9.247E-04 0.000E+00

     total cpu time spent up to now is       24.9 secs

     total energy              =    -369.68024900 Ry
     estimated scf accuracy    <       2.18953907 Ry

     iteration #  5     ecut=    70.00 Ry     beta= 0.70
     Davidson diagonalization with overlap
     ethr =  5.71E-03,  avg # of iterations =  1.0

     negative rho (up, down):  1.001E-03 0.000E+00

     total cpu time spent up to now is       25.3 secs

     total energy              =    -369.56669483 Ry
     estimated scf accuracy    <       1.15524559 Ry

     iteration #  6     ecut=    70.00 Ry     beta= 0.70
     Davidson diagonalization with overlap
     ethr =  4.13E-03,  avg # of iterations =  1.8

     negative rho (up, down):  9.426E-04 0.000E+00

     total cpu time spent up to now is       25.8 secs

     total energy              =    -369.64324416 Ry
     estimated scf accuracy    <       0.01291467 Ry

     iteration #  7     ecut=    70.00 Ry     beta= 0.70
     Davidson diagonalization with overlap
     ethr =  4.61E-05,  avg # of iterations =  4.4

     negative rho (up, down):  9.271E-04 0.000E+00

     total cpu time spent up to now is       26.4 secs

     total energy              =    -369.66638490 Ry
     estimated scf accuracy    <       0.06203991 Ry

     iteration #  8     ecut=    70.00 Ry     beta= 0.70
     Davidson diagonalization with overlap
     ethr =  4.61E-05,  avg # of iterations =  1.0

     negative rho (up, down):  9.260E-04 0.000E+00

     total cpu time spent up to now is       26.9 secs

     total energy              =    -369.65418236 Ry
     estimated scf accuracy    <       0.13856901 Ry

     iteration #  9     ecut=    70.00 Ry     beta= 0.70
     Davidson diagonalization with overlap
     ethr =  4.61E-05,  avg # of iterations =  2.3

     negative rho (up, down):  9.204E-04 0.000E+00

     total cpu time spent up to now is       27.4 secs

     total energy              =    -369.66037820 Ry
     estimated scf accuracy    <       0.00447894 Ry

     iteration # 10     ecut=    70.00 Ry     beta= 0.70
     Davidson diagonalization with overlap
     ethr =  1.60E-05,  avg # of iterations =  1.4

     negative rho (up, down):  9.225E-04 0.000E+00

     total cpu time spent up to now is       27.9 secs

     total energy              =    -369.65443136 Ry
     estimated scf accuracy    <       0.03375805 Ry

     iteration # 11     ecut=    70.00 Ry     beta= 0.70
     Davidson diagonalization with overlap
     ethr =  1.60E-05,  avg # of iterations =  4.3

     negative rho (up, down):  8.952E-04 0.000E+00

     total cpu time spent up to now is       28.5 secs

     total energy              =    -369.65678207 Ry
     estimated scf accuracy    <       0.02763285 Ry

     iteration # 12     ecut=    70.00 Ry     beta= 0.70
     Davidson diagonalization with overlap
     ethr =  1.60E-05,  avg # of iterations =  3.7

     negative rho (up, down):  9.007E-04 0.000E+00

     total cpu time spent up to now is       29.0 secs

     total energy              =    -369.65921764 Ry
     estimated scf accuracy    <       0.00348629 Ry

     iteration # 13     ecut=    70.00 Ry     beta= 0.70
     Davidson diagonalization with overlap
     ethr =  1.25E-05,  avg # of iterations =  1.0

     negative rho (up, down):  9.043E-04 0.000E+00

     total cpu time spent up to now is       29.4 secs

     total energy              =    -369.65923558 Ry
     estimated scf accuracy    <       0.00069101 Ry

     iteration # 14     ecut=    70.00 Ry     beta= 0.70
     Davidson diagonalization with overlap
     ethr =  2.47E-06,  avg # of iterations =  2.4

     negative rho (up, down):  9.060E-04 0.000E+00

     total cpu time spent up to now is       29.9 secs

     total energy              =    -369.65926558 Ry
     estimated scf accuracy    <       0.00015597 Ry

     iteration # 15     ecut=    70.00 Ry     beta= 0.70
     Davidson diagonalization with overlap
     ethr =  5.57E-07,  avg # of iterations =  1.2

     negative rho (up, down):  9.061E-04 0.000E+00

     total cpu time spent up to now is       30.4 secs

     total energy              =    -369.65928292 Ry
     estimated scf accuracy    <       0.00020311 Ry

     iteration # 16     ecut=    70.00 Ry     beta= 0.70
     Davidson diagonalization with overlap
     ethr =  5.57E-07,  avg # of iterations =  1.2

     negative rho (up, down):  9.050E-04 0.000E+00

     total cpu time spent up to now is       30.8 secs

     total energy              =    -369.65927960 Ry
     estimated scf accuracy    <       0.00050011 Ry

     iteration # 17     ecut=    70.00 Ry     beta= 0.70
     Davidson diagonalization with overlap
     ethr =  5.57E-07,  avg # of iterations =  1.0

     negative rho (up, down):  9.075E-04 0.000E+00

     total cpu time spent up to now is       31.3 secs

     total energy              =    -369.65928270 Ry
     estimated scf accuracy    <       0.00032600 Ry

     iteration # 18     ecut=    70.00 Ry     beta= 0.70
     Davidson diagonalization with overlap
     ethr =  5.57E-07,  avg # of iterations =  1.1

     negative rho (up, down):  9.116E-04 0.000E+00

     total cpu time spent up to now is       31.7 secs

     total energy              =    -369.65925243 Ry
     estimated scf accuracy    <       0.00054596 Ry

     iteration # 19     ecut=    70.00 Ry     beta= 0.70
     Davidson diagonalization with overlap
     ethr =  5.57E-07,  avg # of iterations =  1.4

     negative rho (up, down):  9.093E-04 0.000E+00

     total cpu time spent up to now is       32.2 secs

     total energy              =    -369.65924883 Ry
     estimated scf accuracy    <       0.00015561 Ry

     iteration # 20     ecut=    70.00 Ry     beta= 0.70
     Davidson diagonalization with overlap
     ethr =  5.56E-07,  avg # of iterations =  1.0

     negative rho (up, down):  9.098E-04 0.000E+00

     total cpu time spent up to now is       32.7 secs

     total energy              =    -369.65925400 Ry
     estimated scf accuracy    <       0.00000971 Ry

     iteration # 21     ecut=    70.00 Ry     beta= 0.70
     Davidson diagonalization with overlap
     ethr =  3.47E-08,  avg # of iterations =  3.6

     negative rho (up, down):  9.093E-04 0.000E+00

     total cpu time spent up to now is       33.2 secs

     total energy              =    -369.65925550 Ry
     estimated scf accuracy    <       0.00000077 Ry

     iteration # 22     ecut=    70.00 Ry     beta= 0.70
     Davidson diagonalization with overlap
     ethr =  2.76E-09,  avg # of iterations =  2.5

     negative rho (up, down):  9.094E-04 0.000E+00

     total cpu time spent up to now is       33.7 secs

     total energy              =    -369.65925560 Ry
     estimated scf accuracy    <       0.00000012 Ry

     iteration # 23     ecut=    70.00 Ry     beta= 0.70
     Davidson diagonalization with overlap
     ethr =  4.30E-10,  avg # of iterations =  1.9

     negative rho (up, down):  9.094E-04 0.000E+00

     total cpu time spent up to now is       34.2 secs

     End of self-consistent calculation

          k = 0.0000 0.0000 0.0000 (  1743 PWs)   bands (ev):

   -69.5200 -39.4982 -35.5815 -35.5815 -35.5815 -15.5963 -15.5963 -15.5963
     9.8718  13.6132  13.6132  16.3427  16.3427  16.3427  18.6505  18.6505
    20.5553  20.5553

          k = 0.0000 0.0000 0.0830 (  1723 PWs)   bands (ev):

   -69.5198 -39.4965 -35.5835 -35.5812 -35.5812 -15.6197 -15.5949 -15.5949
    10.0154  13.6818  13.6866  16.3320  16.3320  16.3739  18.5635  18.6832
    20.3459  20.3459

          k = 0.0000 0.0000 0.1659 (  1723 PWs)   bands (ev):

   -69.5192 -39.4918 -35.5891 -35.5803 -35.5803 -15.6834 -15.5910 -15.5910
    10.4345  13.8815  13.8833  16.3060  16.3060  16.4622  18.3103  18.7610
    19.8416  19.8416

          k = 0.0000 0.0000 0.2489 (  1707 PWs)   bands (ev):

   -69.5184 -39.4853 -35.5967 -35.5792 -35.5792 -15.7694 -15.5857 -15.5857
    11.0940  14.1214  14.2040  16.2802  16.2802  16.5916  17.9168  18.8112
    19.2547  19.2547

          k = 0.0000 0.0000 0.3318 (  1703 PWs)   bands (ev):

   -69.5175 -39.4789 -35.6042 -35.5781 -35.5781 -15.8545 -15.5803 -15.5803
    11.9312  14.2763  14.6137  16.2688  16.2688  16.7333  17.4314  18.7022
    18.7356  18.7356

          k = 0.0000 0.0000 0.4148 (  1698 PWs)   bands (ev):

   -69.5170 -39.4742 -35.6097 -35.5772 -35.5772 -15.9161 -15.5764 -15.5764
    12.8391  14.1740  15.0395  16.2733  16.2733  16.8472  16.9486  18.3795
    18.3795  18.4085

          k = 0.0000 0.0000-0.4978 (  1686 PWs)   bands (ev):

   -69.5167 -39.4725 -35.6116 -35.5769 -35.5769 -15.9385 -15.5750 -15.5750
    13.5419  13.7860  15.2642  16.2786  16.2786  16.7027  16.8915  18.2368
    18.2518  18.2518

          k = 0.0000 0.0830 0.0830 (  1723 PWs)   bands (ev):

   -69.5195 -39.4947 -35.5842 -35.5824 -35.5809 -15.6206 -15.6157 -15.5934
    10.1566  13.7479  13.7601  16.2643  16.3157  16.4541  18.5487  18.6586
    20.1102  20.1362

          k = 0.0000 0.0830 0.1659 (  1716 PWs)   bands (ev):

   -69.5189 -39.4897 -35.5894 -35.5823 -35.5801 -15.6815 -15.6135 -15.5894
    10.5683  13.9320  13.9646  16.1960  16.2747  16.5582  18.3484  18.7254
    19.6399  19.6545

          k = 0.0000 0.0830 0.2489 (  1709 PWs)   bands (ev):

   -69.5181 -39.4830 -35.5971 -35.5815 -35.5789 -15.7668 -15.6076 -15.5839
    11.2142  14.1756  14.2647  16.1529  16.2261  16.6498  18.0043  18.7626
    19.1168  19.1710

          k = 0.0000 0.0830 0.3318 (  1708 PWs)   bands (ev):

   -69.5173 -39.4763 -35.6047 -35.5808 -35.5778 -15.8511 -15.6017 -15.5784
    12.0299  14.3265  14.6476  16.1456  16.1825  16.6939  17.5868  18.4591
    18.7937  18.8980

          k = 0.0000 0.0830 0.4148 (  1704 PWs)   bands (ev):

   -69.5167 -39.4714 -35.6103 -35.5802 -35.5770 -15.9123 -15.5973 -15.5743
    12.9075  14.2146  15.0438  16.1332  16.1704  16.6752  17.2096  18.1198
    18.5874  18.7071

          k = 0.0000 0.0830-0.4978 (  1682 PWs)   bands (ev):

   -69.5165 -39.4696 -35.6123 -35.5800 -35.5767 -15.9345 -15.5957 -15.5728
    13.5707  13.8447  15.2519  16.0835  16.1906  16.6500  17.0534  17.9816
    18.5294  18.5904

          k = 0.0000 0.1659 0.1659 (  1715 PWs)   bands (ev):

   -69.5184 -39.4842 -35.5917 -35.5861 -35.5793 -15.6829 -15.6681 -15.5850
    10.9563  14.0675  14.1913  16.0503  16.1983  16.6505  18.3726  18.6873
    19.1757  19.3237

          k = 0.0000 0.1659 0.2489 (  1702 PWs)   bands (ev):

   -69.5176 -39.4767 -35.5985 -35.5876 -35.5782 -15.7599 -15.6669 -15.5789
    11.5572  14.2413  14.5091  15.9421  16.1134  16.6407  18.2056  18.6042
    18.8554  19.0728

          k = 0.0000 0.1659 0.3318 (  1696 PWs)   bands (ev):

   -69.5168 -39.4691 -35.6063 -35.5880 -35.5771 -15.8421 -15.6596 -15.5729
    12.2983  14.3424  14.8582  15.8957  16.0575  16.5091  17.9215  18.2364
    18.9450  18.9902

          k = 0.0000 0.1659 0.4148 (  1693 PWs)   bands (ev):

   -69.5162 -39.4636 -35.6121 -35.5882 -35.5763 -15.9018 -15.6540 -15.5685
    13.0649  14.2216  15.1750  15.9200  16.0474  16.3203  17.6774  17.9698
    18.9569  19.0313

          k = 0.0000 0.1659-0.4978 (  1704 PWs)   bands (ev):

   -69.5160 -39.4615 -35.6143 -35.5883 -35.5760 -15.9235 -15.6520 -15.5669
    13.5891  13.9365  15.3226  15.9656  16.0476  16.2089  17.6144  17.8277
    18.9298  19.0710

          k = 0.0000 0.2489 0.2489 (  1708 PWs)   bands (ev):

   -69.5168 -39.4680 -35.6019 -35.5944 -35.5771 -15.7586 -15.7391 -15.5722
    12.0682  14.2780  14.8786  15.7607  16.0304  16.4702  18.3274  18.3907
    18.7370  19.1186

          k = 0.0000 0.2489 0.3318 (  1694 PWs)   bands (ev):

   -69.5160 -39.4592 -35.6086 -35.5978 -35.5761 -15.8298 -15.7377 -15.5655
    12.6547  14.2358  15.2735  15.6512  16.0605  16.2040  18.1149  18.3177
    18.8740  19.2965

          k = 0.0000 0.2489 0.4148 (  1677 PWs)   bands (ev):

   -69.5154 -39.4528 -35.6146 -35.5992 -35.5753 -15.8874 -15.7308 -15.5605
    13.1941  14.0804  15.5625  15.6354  15.9442  16.2613  17.8855  18.2352
    19.0535  19.5141

          k = 0.0000 0.2489-0.4978 (  1690 PWs)   bands (ev):

   -69.5152 -39.4505 -35.6169 -35.5997 -35.5750 -15.9084 -15.7282 -15.5587
    13.4895  13.9196  15.6593  15.6869  15.7929  16.4284  17.7579  18.1894
    19.1362  19.6292

          k = 0.0000 0.3318 0.3318 (  1682 PWs)   bands (ev):

   -69.5152 -39.4494 -35.6121 -35.6064 -35.5750 -15.8236 -15.8091 -15.5580
    12.9871  14.0656  15.4762  15.7708  15.8813  16.2686  18.1465  18.6057
    18.7672  19.6363

          k = 0.0000 0.3318 0.4148 (  1681 PWs)   bands (ev):

   -69.5146 -39.4421 -35.6172 -35.6101 -35.5743 -15.8730 -15.8067 -15.5525
    13.2188  13.8952  15.4036  15.6174  16.1479  16.7259  18.0171  18.6535
    18.9479  19.9410

          k = 0.0000 0.3318-0.4978 (  1686 PWs)   bands (ev):

   -69.5144 -39.4394 -35.6196 -35.6110 -35.5740 -15.8933 -15.8036 -15.5505
    13.3104  13.8131  15.4331  15.4697  16.2667  17.1429  17.7382  18.6895
    19.0873  20.1008

          k = 0.0000 0.4148 0.4148 (  1688 PWs)   bands (ev):

   -69.5140 -39.4342 -35.6196 -35.6177 -35.5736 -15.8646 -15.8598 -15.5467
    13.1820  13.7611  15.2721  15.3820  16.7644  17.2218  18.2507  18.6412
    18.9636  20.2591

          k = 0.0000 0.4148-0.4978 (  1680 PWs)   bands (ev):

   -69.5138 -39.4313 -35.6216 -35.6193 -35.5733 -15.8823 -15.8583 -15.5445
    13.1595  13.7139  15.2596  15.2672  16.9947  17.7540  17.9329  18.7356
    19.0109  20.4163

          k = 0.0000-0.4978-0.4978 (  1692 PWs)   bands (ev):

   -69.5136 -39.4283 -35.6223 -35.6223 -35.5731 -15.8782 -15.8782 -15.5424
    13.1026  13.6758  15.1984  15.1984  17.4262  17.8461  18.3496  18.3496
    19.0880  20.5275

          k = 0.0830 0.0830 0.0830 (  1716 PWs)   bands (ev):

   -69.5193 -39.4928 -35.5839 -35.5839 -35.5813 -15.6211 -15.6142 -15.6142
    10.2958  13.8229  13.8229  16.2466  16.2466  16.5219  18.5902  18.5902
    19.7475  20.3287

          k = 0.0830 0.0830 0.1659 (  1711 PWs)   bands (ev):

   -69.5187 -39.4877 -35.5895 -35.5830 -35.5812 -15.6797 -15.6133 -15.6103
    10.7010  14.0067  14.0210  16.1531  16.1993  16.6083  18.3915  18.6908
    19.2991  19.8217

          k = 0.0830 0.0830 0.2489 (  1705 PWs)   bands (ev):

   -69.5179 -39.4807 -35.5974 -35.5819 -35.5807 -15.7642 -15.6066 -15.6048
    11.3348  14.2601  14.2961  16.0938  16.1345  16.6430  18.0853  18.7142
    18.9886  19.2400

          k = 0.0830 0.0830 0.3318 (  1709 PWs)   bands (ev):

   -69.5171 -39.4737 -35.6052 -35.5807 -35.5803 -15.8479 -15.5999 -15.5994
    12.1312  14.3998  14.6596  16.0577  16.0949  16.6048  17.7211  18.4683
    18.7361  19.0005

          k = 0.0830 0.0830 0.4148 (  1705 PWs)   bands (ev):

   -69.5165 -39.4686 -35.6109 -35.5800 -35.5799 -15.9086 -15.5955 -15.5950
    12.9816  14.2720  15.0292  15.9578  16.1691  16.5323  17.3982  18.1862
    18.3993  19.0465

          k = 0.0830 0.0830-0.4978 (  1696 PWs)   bands (ev):

   -69.5163 -39.4667 -35.6130 -35.5799 -35.5796 -15.9307 -15.5940 -15.5931
    13.6118  13.9120  15.2239  15.8797  16.2389  16.4858  17.2632  18.0348
    18.2809  19.0748

          k = 0.0830 0.1659 0.1659 (  1707 PWs)   bands (ev):

   -69.5181 -39.4820 -35.5913 -35.5867 -35.5812 -15.6805 -15.6666 -15.6070
    11.0851  14.1503  14.2370  16.0211  16.1097  16.6264  18.4288  18.6575
    18.9750  19.5605

          k = 0.0830 0.1659 0.2489 (  1701 PWs)   bands (ev):

   -69.5173 -39.4743 -35.5984 -35.5878 -35.5806 -15.7573 -15.6650 -15.6006
    11.6786  14.3352  14.5339  15.9066  16.0195  16.5249  18.2746  18.6371
    18.8804  19.1461

          k = 0.0830 0.1659 0.3318 (  1700 PWs)   bands (ev):

   -69.5165 -39.4665 -35.6065 -35.5879 -35.5798 -15.8391 -15.6576 -15.5942
    12.4072  14.4476  14.8403  15.8410  15.9688  16.3629  18.0338  18.3531
    18.8173  19.1650

          k = 0.0830 0.1659 0.4148 (  1697 PWs)   bands (ev):

   -69.5160 -39.4608 -35.6125 -35.5880 -35.5792 -15.8985 -15.6520 -15.5895
    13.1558  14.3148  15.1156  15.7740  16.0422  16.2425  17.8152  18.0502
    18.6049  19.4662

          k = 0.0830 0.1659-0.4978 (  1694 PWs)   bands (ev):

   -69.5157 -39.4588 -35.6147 -35.5880 -35.5790 -15.9201 -15.6500 -15.5877
    13.6622  14.0261  15.2511  15.7246  16.1427  16.1786  17.7415  17.8867
    18.5022  19.6485

          k = 0.0830 0.2489 0.2489 (  1697 PWs)   bands (ev):

   -69.5166 -39.4655 -35.6015 -35.5947 -35.5798 -15.7555 -15.7375 -15.5937
    12.1901  14.3773  14.8961  15.7277  15.9318  16.2900  18.3856  18.5790
    18.7267  19.1956

          k = 0.0830 0.2489 0.3318 (  1693 PWs)   bands (ev):

   -69.5158 -39.4567 -35.6085 -35.5978 -35.5789 -15.8272 -15.7357 -15.5867
    12.7738  14.3402  15.2551  15.6150  15.9538  16.0582  18.2253  18.3963
    18.8207  19.4639

          k = 0.0830 0.2489 0.4148 (  1687 PWs)   bands (ev):

   -69.5152 -39.4502 -35.6147 -35.5990 -35.5782 -15.8846 -15.7289 -15.5816
    13.3040  14.1836  15.4566  15.5813  15.8968  16.1949  17.9508  18.3152
    18.7819  19.8830

          k = 0.0830 0.2489-0.4978 (  1692 PWs)   bands (ev):

   -69.5150 -39.4479 -35.6171 -35.5993 -35.5780 -15.9056 -15.7263 -15.5797
    13.5895  14.0245  15.4937  15.5957  15.8404  16.3929  17.7863  18.2869
    18.7232  20.1884

          k = 0.0830 0.3318 0.3318 (  1695 PWs)   bands (ev):

   -69.5150 -39.4469 -35.6117 -35.6065 -35.5779 -15.8209 -15.8075 -15.5792
    13.1107  14.1682  15.4479  15.7510  15.7704  16.1382  18.1680  18.6991
    18.7078  19.8445

          k = 0.0830 0.3318 0.4148 (  1687 PWs)   bands (ev):

   -69.5144 -39.4396 -35.6170 -35.6099 -35.5772 -15.8708 -15.8049 -15.5737
    13.3357  13.9993  15.3737  15.5445  16.1062  16.5964  18.0073  18.6504
    18.8233  20.2634

          k = 0.0830 0.3318-0.4978 (  1692 PWs)   bands (ev):

   -69.5142 -39.4370 -35.6195 -35.6106 -35.5770 -15.8912 -15.8019 -15.5717
    13.4205  13.9204  15.3945  15.4191  16.2111  17.0013  17.7473  18.7267
    18.7752  20.3737

          k = 0.0830 0.4148 0.4148 (  1688 PWs)   bands (ev):

   -69.5138 -39.4318 -35.6192 -35.6174 -35.5765 -15.8626 -15.8582 -15.5680
    13.2968  13.8667  15.2511  15.3466  16.7097  17.0728  18.1306  18.4351
    19.0295  20.4884

          k = 0.0830 0.4148-0.4978 (  1682 PWs)   bands (ev):

   -69.5136 -39.4290 -35.6213 -35.6189 -35.5762 -15.8805 -15.8567 -15.5658
    13.2726  13.8203  15.2376  15.2435  16.9303  17.6651  17.7453  18.4249
    19.0818  20.5623

          k = 0.0830-0.4978-0.4978 (  1692 PWs)   bands (ev):

   -69.5134 -39.4260 -35.6219 -35.6219 -35.5760 -15.8766 -15.8766 -15.5637
    13.2165  13.7818  15.1804  15.1804  17.4288  17.8473  17.9774  17.9774
    19.1588  20.9976

          k = 0.1659 0.1659 0.1659 (  1683 PWs)   bands (ev):

   -69.5176 -39.4760 -35.5904 -35.5904 -35.5845 -15.6782 -15.6625 -15.6625
    11.4565  14.3685  14.3685  15.9412  15.9412  16.4765  18.5704  18.5704
    18.8893  19.7800

          k = 0.1659 0.1659 0.2489 (  1696 PWs)   bands (ev):

   -69.5168 -39.4677 -35.5985 -35.5892 -35.5859 -15.7505 -15.6622 -15.6569
    12.0244  14.5687  14.6211  15.8091  15.8295  16.2230  18.4361  18.6670
    19.0439  19.2105

          k = 0.1659 0.1659 0.3318 (  1688 PWs)   bands (ev):

   -69.5160 -39.4594 -35.6072 -35.5880 -35.5868 -15.8309 -15.6528 -15.6513
    12.7069  14.7102  14.8070  15.7044  15.7900  16.0591  18.2812  18.5090
    18.7277  19.4497

          k = 0.1659 0.1659 0.4148 (  1705 PWs)   bands (ev):

   -69.5154 -39.4534 -35.6136 -35.5874 -35.5871 -15.8894 -15.6472 -15.6458
    13.3835  14.4971  15.0344  15.5791  15.9027  16.0951  18.1473  18.1504
    18.4104  19.9642

          k = 0.1659 0.1659-0.4978 (  1688 PWs)   bands (ev):

   -69.5152 -39.4511 -35.6159 -35.5876 -35.5867 -15.9107 -15.6457 -15.6432
    13.8158  14.2126  15.1513  15.5046  15.9651  16.1871  17.9220  18.0971
    18.3009  20.1528

          k = 0.1659 0.2489 0.2489 (  1695 PWs)   bands (ev):

   -69.5160 -39.4587 -35.6006 -35.5957 -35.5869 -15.7473 -15.7333 -15.6520
    12.5361  14.6502  14.9436  15.6399  15.7139  15.8928  18.5089  18.6846
    18.9926  19.4101

          k = 0.1659 0.2489 0.3318 (  1698 PWs)   bands (ev):

   -69.5152 -39.4497 -35.6083 -35.5977 -35.5866 -15.8199 -15.7303 -15.6445
    13.1087  14.6272  15.1823  15.5232  15.7059  15.7651  18.3627  18.5590
    18.8136  19.8517

          k = 0.1659 0.2489 0.4148 (  1696 PWs)   bands (ev):

   -69.5146 -39.4431 -35.6150 -35.5982 -35.5863 -15.8771 -15.7237 -15.6389
    13.6045  14.4490  15.2321  15.4469  15.7566  16.0456  18.0497  18.4073
    18.6415  20.1511

          k = 0.1659 0.2489-0.4978 (  1704 PWs)   bands (ev):

   -69.5144 -39.4407 -35.6175 -35.5984 -35.5861 -15.8980 -15.7212 -15.6369
    13.8569  14.2853  15.2509  15.4156  15.7882  16.2728  17.8232  18.3502
    18.5726  20.2276

          k = 0.1659 0.3318 0.3318 (  1693 PWs)   bands (ev):

   -69.5144 -39.4400 -35.6107 -35.6067 -35.5859 -15.8135 -15.8032 -15.6369
    13.4653  14.4448  15.3741  15.5218  15.6886  15.8157  18.2144  18.5311
    18.9679  20.0459

          k = 0.1659 0.3318 0.4148 (  1693 PWs)   bands (ev):

   -69.5138 -39.4329 -35.6165 -35.6092 -35.5852 -15.8648 -15.8000 -15.6313
    13.6702  14.2765  15.2986  15.3822  15.9496  16.2913  17.9970  18.3590
    19.0272  20.2579

          k = 0.1659 0.3318-0.4978 (  1706 PWs)   bands (ev):

   -69.5136 -39.4303 -35.6192 -35.6096 -35.5850 -15.8852 -15.7972 -15.6293
    13.7338  14.2048  15.2994  15.3048  16.0335  16.6587  17.7497  18.3066
    19.0255  20.3620

          k = 0.1659 0.4148 0.4148 (  1693 PWs)   bands (ev):

   -69.5132 -39.4253 -35.6181 -35.6167 -35.5845 -15.8573 -15.8539 -15.6258
    13.6278  14.1521  15.1981  15.2637  16.5268  16.6510  18.0025  18.0689
    19.2496  20.4829

          k = 0.1659 0.4148-0.4978 (  1690 PWs)   bands (ev):

   -69.5130 -39.4226 -35.6204 -35.6178 -35.5842 -15.8758 -15.8523 -15.6237
    13.5989  14.1088  15.1845  15.1855  16.6894  17.1020  17.6905  18.0479
    19.3020  20.6228

          k = 0.1659-0.4978-0.4978 (  1696 PWs)   bands (ev):

   -69.5128 -39.4198 -35.6208 -35.6208 -35.5839 -15.8724 -15.8724 -15.6217
    13.5457  14.0709  15.1363  15.1363  17.2915  17.2915  17.4358  17.8423
    19.3750  21.9782

          k = 0.2489 0.2489 0.2489 (  1713 PWs)   bands (ev):

   -69.5152 -39.4495 -35.5992 -35.5992 -35.5945 -15.7396 -15.7275 -15.7275
    13.0418  15.0069  15.0069  15.4742  15.5243  15.5243  18.5805  18.5805
    19.3827  19.3827

          k = 0.2489 0.2489 0.3318 (  1687 PWs)   bands (ev):

   -69.5144 -39.4402 -35.6082 -35.5979 -35.5966 -15.8102 -15.7238 -15.7217
    13.5787  14.9639  15.0683  15.4119  15.4700  15.5396  18.4086  18.4175
    19.1320  19.7825

          k = 0.2489 0.2489 0.4148 (  1696 PWs)   bands (ev):

   -69.5138 -39.4334 -35.6154 -35.5975 -35.5969 -15.8668 -15.7175 -15.7155
    13.9765  14.6673  15.1140  15.3283  15.5860  15.9278  18.0380  18.2534
    19.0207  20.1314

          k = 0.2489 0.2489-0.4978 (  1690 PWs)   bands (ev):

   -69.5136 -39.4309 -35.6181 -35.5978 -35.5966 -15.8875 -15.7159 -15.7125
    14.1404  14.5164  15.1325  15.2955  15.6648  16.1684  17.7817  18.1949
    18.9890  20.2619

          k = 0.2489 0.3318 0.3318 (  1691 PWs)   bands (ev):

   -69.5136 -39.4306 -35.6092 -35.6069 -35.5966 -15.8034 -15.7973 -15.7150
    13.9962  14.7722  15.2832  15.3071  15.4508  15.5821  18.2169  18.2933
    19.3738  19.9064

          k = 0.2489 0.3318 0.4148 (  1703 PWs)   bands (ev):

   -69.5130 -39.4236 -35.6159 -35.6081 -35.5961 -15.8566 -15.7933 -15.7093
    14.1629  14.6039  15.2107  15.2612  15.6565  15.9917  17.9400  18.1248
    19.4122  20.2403

          k = 0.2489 0.3318-0.4978 (  1694 PWs)   bands (ev):

   -69.5128 -39.4211 -35.6187 -35.6083 -35.5959 -15.8770 -15.7908 -15.7072
    14.1827  14.5450  15.1904  15.2297  15.7614  16.2784  17.7032  18.0804
    19.4130  20.3940

          k = 0.2489 0.4148 0.4148 (  1697 PWs)   bands (ev):

   -69.5125 -39.4165 -35.6166 -35.6158 -35.5953 -15.8500 -15.8481 -15.7040
    14.1287  14.5213  15.1399  15.1983  16.1335  16.2119  17.8093  17.9274
    19.6217  20.5075

          k = 0.2489 0.4148-0.4978 (  1694 PWs)   bands (ev):

   -69.5123 -39.4138 -35.6191 -35.6163 -35.5950 -15.8693 -15.8463 -15.7021
    14.0936  14.4894  15.1300  15.1360  16.2687  16.5154  17.5980  17.8936
    19.6705  20.6651

          k = 0.2489-0.4978-0.4978 (  1692 PWs)   bands (ev):

   -69.5120 -39.4112 -35.6193 -35.6193 -35.5947 -15.8665 -15.8665 -15.7002
    14.0500  14.4626  15.0918  15.0918  16.6243  16.6243  17.4453  17.8069
    19.7387  20.8353

          k = 0.3318 0.3318 0.3318 (  1709 PWs)   bands (ev):

   -69.5128 -39.4212 -35.6078 -35.6078 -35.6067 -15.7941 -15.7915 -15.7915
    14.5330  14.8366  15.2091  15.2091  15.4450  15.4450  18.0907  18.0907
    19.8626  19.8626

          k = 0.3318 0.3318 0.4148 (  1702 PWs)   bands (ev):

   -69.5123 -39.4144 -35.6153 -35.6072 -35.6068 -15.8484 -15.7872 -15.7858
    14.5997  14.7955  15.1809  15.3106  15.4003  15.7975  17.8220  17.9693
    19.8564  20.3042

          k = 0.3318 0.3318-0.4978 (  1694 PWs)   bands (ev):

   -69.5121 -39.4118 -35.6182 -35.6073 -35.6064 -15.8688 -15.7856 -15.7831
    14.5564  14.7529  15.2134  15.2169  15.5514  16.0333  17.6334  17.9304
    19.8572  20.4871

          k = 0.3318 0.4148 0.4148 (  1693 PWs)   bands (ev):

   -69.5117 -39.4075 -35.6151 -35.6148 -35.6062 -15.8427 -15.8422 -15.7814
    14.6532  14.8571  15.1106  15.2601  15.6806  15.8466  17.6818  17.8119
    20.1043  20.5389

          k = 0.3318 0.4148-0.4978 (  1694 PWs)   bands (ev):

   -69.5115 -39.4051 -35.6179 -35.6148 -35.6058 -15.8629 -15.8403 -15.7796
    14.6470  14.8184  15.1469  15.1483  15.8205  16.0254  17.5460  17.7717
    20.1471  20.7036

          k = 0.3318-0.4978-0.4978 (  1700 PWs)   bands (ev):

   -69.5113 -39.4026 -35.6178 -35.6178 -35.6055 -15.8607 -15.8607 -15.7779
    14.6500  14.8453  15.0805  15.0805  16.0656  16.0656  17.4549  17.7110
    20.2158  20.8555

          k = 0.4148 0.4148 0.4148 (  1691 PWs)   bands (ev):

   -69.5111 -39.4010 -35.6142 -35.6140 -35.6140 -15.8379 -15.8379 -15.8372
    14.8489  15.1405  15.1405  15.4314  15.5304  15.5304  17.6293  17.6293
    20.5632  20.5632

          k = 0.4148 0.4148-0.4978 (  1684 PWs)   bands (ev):

   -69.5109 -39.3986 -35.6170 -35.6139 -35.6136 -15.8581 -15.8363 -15.8354
    14.9795  14.9918  15.2080  15.3600  15.5026  15.7193  17.5134  17.6154
    20.5723  20.7626

          k = 0.4148-0.4978-0.4978 (  1688 PWs)   bands (ev):

   -69.5107 -39.3963 -35.6166 -35.6166 -35.6133 -15.8564 -15.8564 -15.8343
    15.1161  15.1323  15.1323  15.1984  15.6485  15.6485  17.4619  17.5578
    20.6745  20.8703

          k =-0.4978-0.4978-0.4978 (  1640 PWs)   bands (ev):

   -69.5105 -39.3939 -35.6162 -35.6162 -35.6162 -15.8547 -15.8547 -15.8547
    15.2126  15.2126  15.2126  15.4427  15.4427  15.4427  17.4646  17.4646
    20.8757  25.7502

     the Fermi energy is    17.3267 ev

!    total energy              =    -369.65925561 Ry
     estimated scf accuracy    <          1.8E-09 Ry
     smearing contrib. (-TS)   =       0.00006228 Ry
     internal energy E=F+TS    =    -369.65931789 Ry

     The total energy is F=E-TS. E is the sum of the following terms:
     one-electron contribution =    -157.08743015 Ry
     hartree contribution      =      93.22076600 Ry
     xc contribution           =     -47.25141235 Ry
     ewald contribution        =    -258.54124139 Ry

     convergence has been achieved in  23 iterations

     negative rho (up, down):  9.094E-04 0.000E+00

     Forces acting on atoms (cartesian axes, Ry/au):

     atom    1 type  1   force =     0.00000000    0.00000000    0.00000000
     atom    2 type  2   force =     0.00000000    0.00000000    0.00000000

     Total force =     0.000000     Total SCF correction =     0.000000


     Computing stress (Cartesian axis) and pressure


     negative rho (up, down):  9.094E-04 0.000E+00
          total   stress  (Ry/bohr**3)                   (kbar)     P=       -0.42
  -0.00000284   0.00000000   0.00000000           -0.42        0.00        0.00
   0.00000000  -0.00000284   0.00000000            0.00       -0.42        0.00
   0.00000000   0.00000000  -0.00000284            0.00        0.00       -0.42

     Energy error            =      2.1E-04 Ry
     Gradient error          =      0.0E+00 Ry/Bohr
     Cell gradient error     =      4.2E-01 kbar

     number of scf cycles    =   2
     number of bfgs steps    =   1

     enthalpy           old  =    -369.6590465402 Ry
     enthalpy           new  =    -369.6592556104 Ry

     CASE: enthalpy          _new < enthalpy          _old

     new trust radius        =       0.0001852871 bohr
     new conv_thr            =            1.0E-10 Ry

     new unit-cell volume =    173.77756 a.u.^3 (    25.75118 Ang^3 )
     density =      6.68776 g/cm^3

CELL_PARAMETERS (angstrom)
   2.953015330   0.000000000   0.000000000
   0.000000000   2.953015330   0.000000000
   0.000000000   0.000000000   2.953015330

ATOMIC_POSITIONS (crystal)
Ti            0.0000000000        0.0000000000        0.0000000000
Fe            0.5000000000        0.5000000000        0.5000000000



     Writing config-only to output data dir ./out/FeTi.save/
     NEW-OLD atomic charge density approx. for the potential

     Check: negative core charge=   -0.000034

     negative rho (up, down):  9.091E-04 0.000E+00
     extrapolated charge   27.99452, renormalised to   28.00000

     total cpu time spent up to now is       38.6 secs

     Self-consistent Calculation

     iteration #  1     ecut=    70.00 Ry     beta= 0.70
     Davidson diagonalization with overlap
     ethr =  1.00E-06,  avg # of iterations =  2.0

     negative rho (up, down):  9.154E-04 0.000E+00

     total cpu time spent up to now is       39.2 secs

     total energy              =    -369.65894399 Ry
     estimated scf accuracy    <       0.00033711 Ry

     iteration #  2     ecut=    70.00 Ry     beta= 0.70
     Davidson diagonalization with overlap
     ethr =  1.20E-06,  avg # of iterations =  5.4

     negative rho (up, down):  9.066E-04 0.000E+00

     total cpu time spent up to now is       39.9 secs

     total energy              =    -369.65712263 Ry
     estimated scf accuracy    <       0.04795212 Ry

     iteration #  3     ecut=    70.00 Ry     beta= 0.70
     Davidson diagonalization with overlap
     ethr =  1.20E-06,  avg # of iterations =  5.3

     negative rho (up, down):  9.087E-04 0.000E+00

     total cpu time spent up to now is       40.6 secs

     total energy              =    -369.65925901 Ry
     estimated scf accuracy    <       0.00026984 Ry

     iteration #  4     ecut=    70.00 Ry     beta= 0.70
     Davidson diagonalization with overlap
     ethr =  9.64E-07,  avg # of iterations =  1.0

     negative rho (up, down):  9.089E-04 0.000E+00

     total cpu time spent up to now is       41.1 secs

     total energy              =    -369.65925910 Ry
     estimated scf accuracy    <       0.00013390 Ry

     iteration #  5     ecut=    70.00 Ry     beta= 0.70
     Davidson diagonalization with overlap
     ethr =  4.78E-07,  avg # of iterations =  1.0

     negative rho (up, down):  9.093E-04 0.000E+00

     total cpu time spent up to now is       41.5 secs

     total energy              =    -369.65925446 Ry
     estimated scf accuracy    <       0.00008545 Ry

     iteration #  6     ecut=    70.00 Ry     beta= 0.70
     Davidson diagonalization with overlap
     ethr =  3.05E-07,  avg # of iterations =  1.0

     negative rho (up, down):  9.094E-04 0.000E+00

     total cpu time spent up to now is       42.0 secs

     total energy              =    -369.65925541 Ry
     estimated scf accuracy    <       0.00002161 Ry

     iteration #  7     ecut=    70.00 Ry     beta= 0.70
     Davidson diagonalization with overlap
     ethr =  7.72E-08,  avg # of iterations =  1.4

     negative rho (up, down):  9.094E-04 0.000E+00

     total cpu time spent up to now is       42.4 secs

     total energy              =    -369.65925488 Ry
     estimated scf accuracy    <       0.00001252 Ry

     iteration #  8     ecut=    70.00 Ry     beta= 0.70
     Davidson diagonalization with overlap
     ethr =  4.47E-08,  avg # of iterations =  2.2

     negative rho (up, down):  9.093E-04 0.000E+00

     total cpu time spent up to now is       42.9 secs

     total energy              =    -369.65925563 Ry
     estimated scf accuracy    <       0.00000114 Ry

     iteration #  9     ecut=    70.00 Ry     beta= 0.70
     Davidson diagonalization with overlap
     ethr =  4.07E-09,  avg # of iterations =  2.4

     negative rho (up, down):  9.094E-04 0.000E+00

     total cpu time spent up to now is       43.4 secs

     total energy              =    -369.65925553 Ry
     estimated scf accuracy    <       0.00000403 Ry

     iteration # 10     ecut=    70.00 Ry     beta= 0.70
     Davidson diagonalization with overlap
     ethr =  4.07E-09,  avg # of iterations =  1.3

     negative rho (up, down):  9.095E-04 0.000E+00

     total cpu time spent up to now is       43.9 secs

     total energy              =    -369.65925542 Ry
     estimated scf accuracy    <       0.00000094 Ry

     iteration # 11     ecut=    70.00 Ry     beta= 0.70
     Davidson diagonalization with overlap
     ethr =  3.36E-09,  avg # of iterations =  2.9

     negative rho (up, down):  9.096E-04 0.000E+00

     total cpu time spent up to now is       44.4 secs

     total energy              =    -369.65925566 Ry
     estimated scf accuracy    <       0.00000061 Ry

     iteration # 12     ecut=    70.00 Ry     beta= 0.70
     Davidson diagonalization with overlap
     ethr =  2.18E-09,  avg # of iterations =  1.6

     negative rho (up, down):  9.099E-04 0.000E+00

     total cpu time spent up to now is       44.9 secs

[...]

          k = 0.0000 0.1659 0.3319 (  1725 PWs)   bands (ev):

   -69.5128 -39.4645 -35.6023 -35.5841 -35.5731 -15.8376 -15.6550 -15.5683
    12.3022  14.3459  14.8617  15.8995  16.0614  16.5130  17.9257  18.2409
    18.9496  18.9948

          k = 0.0000 0.1659 0.4148 (  1719 PWs)   bands (ev):

   -69.5122 -39.4590 -35.6082 -35.5843 -35.5723 -15.8974 -15.6495 -15.5638
    13.0688  14.2253  15.1786  15.9238  16.0513  16.3242  17.6815  17.9742
    18.9616  19.0359

          k = 0.0000 0.1659-0.4978 (  1708 PWs)   bands (ev):

   -69.5120 -39.4569 -35.6103 -35.5843 -35.5720 -15.9191 -15.6474 -15.5622
    13.5929  13.9403  15.3262  15.9694  16.0515  16.2127  17.6186  17.8321
    18.9345  19.0756

          k = 0.0000 0.2489 0.2489 (  1735 PWs)   bands (ev):

   -69.5128 -39.4634 -35.5979 -35.5904 -35.5731 -15.7541 -15.7345 -15.5676
    12.0721  14.2813  14.8821  15.7644  16.0342  16.4741  18.3318  18.3951
    18.7415  19.1232

          k = 0.0000 0.2489 0.3319 (  1724 PWs)   bands (ev):

   -69.5120 -39.4546 -35.6047 -35.5938 -35.5721 -15.8254 -15.7332 -15.5608
    12.6585  14.2392  15.2772  15.6549  16.0644  16.2079  18.1193  18.3221
    18.8786  19.3012

          k = 0.0000 0.2489 0.4148 (  1713 PWs)   bands (ev):

   -69.5114 -39.4482 -35.6107 -35.5953 -35.5713 -15.8830 -15.7263 -15.5559
    13.1978  14.0839  15.5663  15.6391  15.9480  16.2654  17.8899  18.2396
    19.0582  19.5188

          k = 0.0000 0.2489-0.4978 (  1700 PWs)   bands (ev):

   -69.5112 -39.4459 -35.6130 -35.5957 -35.5710 -15.9040 -15.7236 -15.5540
    13.4931  13.9232  15.6631  15.6906  15.7966  16.4325  17.7623  18.1937
    19.1410  19.6340

          k = 0.0000 0.3319 0.3319 (  1710 PWs)   bands (ev):

   -69.5112 -39.4447 -35.6082 -35.6025 -35.5711 -15.8191 -15.8046 -15.5534
    12.9908  14.0690  15.4799  15.7747  15.8850  16.2727  18.1510  18.6102
    18.7718  19.6411

          k = 0.0000 0.3319 0.4148 (  1708 PWs)   bands (ev):

   -69.5106 -39.4375 -35.6133 -35.6062 -35.5703 -15.8686 -15.8023 -15.5479
    13.2223  13.8986  15.4072  15.6210  16.1519  16.7302  18.0215  18.6580
    18.9525  19.9458

          k = 0.0000 0.3319-0.4978 (  1698 PWs)   bands (ev):

   -69.5104 -39.4348 -35.6157 -35.6071 -35.5701 -15.8889 -15.7991 -15.5459
    13.3138  13.8166  15.4367  15.4734  16.2707  17.1473  17.7426  18.6940
    19.0921  20.1057

          k = 0.0000 0.4148 0.4148 (  1710 PWs)   bands (ev):

   -69.5100 -39.4296 -35.6157 -35.6137 -35.5696 -15.8601 -15.8553 -15.5420
    13.1853  13.7645  15.2757  15.3856  16.7685  17.2261  18.2553  18.6459
    18.9681  20.2641

          k = 0.0000 0.4148-0.4978 (  1698 PWs)   bands (ev):

   -69.5098 -39.4267 -35.6177 -35.6154 -35.5694 -15.8778 -15.8538 -15.5399
    13.1628  13.7173  15.2632  15.2708  16.9989  17.7583  17.9375  18.7404
    19.0154  20.4213

          k = 0.0000-0.4978-0.4978 (  1692 PWs)   bands (ev):

   -69.5096 -39.4237 -35.6184 -35.6184 -35.5691 -15.8738 -15.8738 -15.5377
    13.1058  13.6792  15.2019  15.2019  17.4305  17.8505  18.3544  18.3544
    19.0926  20.5326

          k = 0.0830 0.0830 0.0830 (  1740 PWs)   bands (ev):

   -69.5153 -39.4882 -35.5799 -35.5799 -35.5774 -15.6165 -15.6096 -15.6096
    10.2994  13.8260  13.8260  16.2505  16.2505  16.5259  18.5946  18.5946
    19.7523  20.3337

          k = 0.0830 0.0830 0.1659 (  1737 PWs)   bands (ev):

   -69.5148 -39.4831 -35.5856 -35.5791 -35.5772 -15.6751 -15.6087 -15.6056
    10.7046  14.0098  14.0243  16.1570  16.2031  16.6122  18.3959  18.6953
    19.3038  19.8265

          k = 0.0830 0.0830 0.2489 (  1725 PWs)   bands (ev):

   -69.5139 -39.4761 -35.5934 -35.5779 -35.5768 -15.7597 -15.6020 -15.6002
    11.3386  14.2635  14.2994  16.0976  16.1383  16.6470  18.0896  18.7188
    18.9932  19.2447

          k = 0.0830 0.0830 0.3319 (  1730 PWs)   bands (ev):

   -69.5131 -39.4691 -35.6013 -35.5768 -35.5763 -15.8435 -15.5953 -15.5948
    12.1351  14.4033  14.6630  16.0615  16.0988  16.6088  17.7253  18.4728
    18.7406  19.0051

          k = 0.0830 0.0830 0.4148 (  1723 PWs)   bands (ev):

   -69.5126 -39.4640 -35.6070 -35.5760 -35.5759 -15.9042 -15.5908 -15.5903
    12.9855  14.2757  15.0327  15.9616  16.1729  16.5362  17.4023  18.1907
    18.4037  19.0512

          k = 0.0830 0.0830-0.4978 (  1716 PWs)   bands (ev):

   -69.5123 -39.4621 -35.6090 -35.5759 -35.5756 -15.9263 -15.5894 -15.5885
    13.6156  13.9158  15.2275  15.8835  16.2428  16.4897  17.2672  18.0392
    18.2853  19.0795

          k = 0.0830 0.1659 0.1659 (  1724 PWs)   bands (ev):

   -69.5142 -39.4774 -35.5874 -35.5827 -35.5772 -15.6760 -15.6621 -15.6024
    11.0888  14.1535  14.2403  16.0249  16.1136  16.6304  18.4332  18.6620
    18.9795  19.5652

          k = 0.0830 0.1659 0.2489 (  1725 PWs)   bands (ev):

   -69.5134 -39.4697 -35.5945 -35.5838 -35.5766 -15.7528 -15.6604 -15.5960
    11.6824  14.3386  14.5373  15.9104  16.0233  16.5289  18.2789  18.6416
    18.8850  19.1508

          k = 0.0830 0.1659 0.3319 (  1723 PWs)   bands (ev):

   -69.5126 -39.4619 -35.6026 -35.5839 -35.5759 -15.8346 -15.6530 -15.5896
    12.4111  14.4510  14.8438  15.8448  15.9727  16.3668  18.0381  18.3575
    18.8218  19.1697

          k = 0.0830 0.1659 0.4148 (  1727 PWs)   bands (ev):

   -69.5120 -39.4562 -35.6086 -35.5840 -35.5752 -15.8941 -15.6474 -15.5849
    13.1597  14.3185  15.1192  15.7778  16.0460  16.2464  17.8194  18.0546
    18.6094  19.4710

          k = 0.0830 0.1659-0.4978 (  1718 PWs)   bands (ev):

   -69.5118 -39.4541 -35.6108 -35.5841 -35.5750 -15.9157 -15.6454 -15.5831
    13.6660  14.0298  15.2547  15.7283  16.1465  16.1826  17.7457  17.8911
    18.5067  19.6534

          k = 0.0830 0.2489 0.2489 (  1726 PWs)   bands (ev):

   -69.5126 -39.4609 -35.5976 -35.5907 -35.5758 -15.7510 -15.7330 -15.5891
    12.1939  14.3807  14.8997  15.7314  15.9356  16.2939  18.3900  18.5834
    18.7312  19.2002

          k = 0.0830 0.2489 0.3319 (  1718 PWs)   bands (ev):

   -69.5118 -39.4521 -35.6046 -35.5938 -35.5749 -15.8227 -15.7312 -15.5821
    12.7776  14.3436  15.2588  15.6187  15.9577  16.0620  18.2297  18.4007
    18.8253  19.4686

          k = 0.0830 0.2489 0.4148 (  1709 PWs)   bands (ev):

   -69.5112 -39.4456 -35.6108 -35.5950 -35.5743 -15.8802 -15.7244 -15.5770
    13.3077  14.1871  15.4603  15.5849  15.9006  16.1989  17.9551  18.3195
    18.7865  19.8878

          k = 0.0830 0.2489-0.4978 (  1714 PWs)   bands (ev):

   -69.5110 -39.4433 -35.6131 -35.5954 -35.5740 -15.9012 -15.7218 -15.5751
    13.5931  14.0282  15.4974  15.5994  15.8443  16.3970  17.7907  18.2913
    18.7278  20.1933

          k = 0.0830 0.3319 0.3319 (  1713 PWs)   bands (ev):

   -69.5110 -39.4422 -35.6078 -35.6025 -35.5740 -15.8164 -15.8030 -15.5746
    13.1143  14.1716  15.4515  15.7548  15.7742  16.1422  18.1724  18.7035
    18.7124  19.8494

          k = 0.0830 0.3319 0.4148 (  1708 PWs)   bands (ev):

   -69.5104 -39.4350 -35.6131 -35.6059 -35.5733 -15.8664 -15.8005 -15.5691
    13.3392  14.0027  15.3773  15.5482  16.1102  16.6007  18.0117  18.6549
    18.8278  20.2683

          k = 0.0830 0.3319-0.4978 (  1714 PWs)   bands (ev):

   -69.5102 -39.4323 -35.6156 -35.6067 -35.5730 -15.8867 -15.7974 -15.5671
    13.4239  13.9239  15.3981  15.4228  16.2151  17.0057  17.7517  18.7313
    18.7796  20.3787

          k = 0.0830 0.4148 0.4148 (  1705 PWs)   bands (ev):

   -69.5098 -39.4272 -35.6153 -35.6135 -35.5725 -15.8582 -15.8538 -15.5633
    13.3002  13.8702  15.2547  15.3502  16.7138  17.0771  18.1351  18.4397
    19.0341  20.4934

          k = 0.0830 0.4148-0.4978 (  1708 PWs)   bands (ev):

   -69.5096 -39.4243 -35.6173 -35.6150 -35.5723 -15.8761 -15.8522 -15.5612
    13.2759  13.8237  15.2412  15.2470  16.9345  17.6696  17.7497  18.4295
    19.0864  20.5673

          k = 0.0830-0.4978-0.4978 (  1700 PWs)   bands (ev):

   -69.5094 -39.4214 -35.6180 -35.6180 -35.5720 -15.8722 -15.8722 -15.5590
    13.2197  13.7852  15.1840  15.1840  17.4330  17.8517  17.9820  17.9820
    19.1634  21.0028

          k = 0.1659 0.1659 0.1659 (  1719 PWs)   bands (ev):

   -69.5136 -39.4714 -35.5865 -35.5865 -35.5805 -15.6737 -15.6580 -15.6580
    11.4603  14.3719  14.3719  15.9449  15.9449  16.4805  18.5748  18.5748
    18.8938  19.7848

          k = 0.1659 0.1659 0.2489 (  1725 PWs)   bands (ev):

   -69.5128 -39.4631 -35.5946 -35.5853 -35.5820 -15.7460 -15.6577 -15.6524
    12.0282  14.5721  14.6246  15.8128  15.8332  16.2269  18.4405  18.6715
    19.0485  19.2152

          k = 0.1659 0.1659 0.3319 (  1728 PWs)   bands (ev):

   -69.5120 -39.4548 -35.6032 -35.5840 -35.5829 -15.8265 -15.6482 -15.6468
    12.7108  14.7138  14.8104  15.7081  15.7938  16.0629  18.2855  18.5135
    18.7322  19.4544

          k = 0.1659 0.1659 0.4148 (  1720 PWs)   bands (ev):

   -69.5114 -39.4487 -35.6096 -35.5835 -35.5831 -15.8850 -15.6426 -15.6412
    13.3873  14.5008  15.0379  15.5828  15.9065  16.0990  18.1518  18.1547
    18.4148  19.9691

          k = 0.1659 0.1659-0.4978 (  1734 PWs)   bands (ev):

   -69.5112 -39.4465 -35.6119 -35.5837 -35.5828 -15.9064 -15.6411 -15.6386
    13.8196  14.2164  15.1547  15.5083  15.9689  16.1910  17.9264  18.1014
    18.3053  20.1576

          k = 0.1659 0.2489 0.2489 (  1719 PWs)   bands (ev):

   -69.5120 -39.4541 -35.5966 -35.5917 -35.5830 -15.7428 -15.7288 -15.6475
    12.5400  14.6537  14.9472  15.6435  15.7177  15.8966  18.5134  18.6892
    18.9971  19.4148

          k = 0.1659 0.2489 0.3319 (  1720 PWs)   bands (ev):

   -69.5112 -39.4451 -35.6043 -35.5937 -35.5827 -15.8155 -15.7258 -15.6399
    13.1125  14.6307  15.1860  15.5268  15.7097  15.7689  18.3671  18.5635
    18.8181  19.8565

          k = 0.1659 0.2489 0.4148 (  1718 PWs)   bands (ev):

   -69.5106 -39.4385 -35.6111 -35.5943 -35.5823 -15.8727 -15.7191 -15.6343
    13.6082  14.4526  15.2357  15.4506  15.7604  16.0496  18.0541  18.4118
    18.6459  20.1560

          k = 0.1659 0.2489-0.4978 (  1718 PWs)   bands (ev):

   -69.5104 -39.4361 -35.6136 -35.5945 -35.5821 -15.8936 -15.7167 -15.6323
    13.8605  14.2890  15.2545  15.4193  15.7921  16.2769  17.8276  18.3547
    18.5770  20.2325

          k = 0.1659 0.3319 0.3319 (  1711 PWs)   bands (ev):

   -69.5104 -39.4354 -35.6067 -35.6027 -35.5819 -15.8090 -15.7987 -15.6323
    13.4690  14.4483  15.3777  15.5255  15.6924  15.8196  18.2188  18.5356
    18.9724  20.0508

          k = 0.1659 0.3319 0.4148 (  1719 PWs)   bands (ev):

   -69.5098 -39.4282 -35.6126 -35.6052 -35.5813 -15.8604 -15.7956 -15.6267
    13.6738  14.2800  15.3022  15.3858  15.9536  16.2954  18.0014  18.3635
    19.0318  20.2628

          k = 0.1659 0.3319-0.4978 (  1712 PWs)   bands (ev):

   -69.5096 -39.4256 -35.6152 -35.6057 -35.5810 -15.8808 -15.7927 -15.6247
    13.7372  14.2084  15.3029  15.3084  16.0375  16.6629  17.7540  18.3111
    19.0301  20.3670

          k = 0.1659 0.4148 0.4148 (  1713 PWs)   bands (ev):

   -69.5093 -39.4207 -35.6142 -35.6128 -35.5805 -15.8529 -15.8495 -15.6212
    13.6312  14.1556  15.2017  15.2673  16.5309  16.6552  18.0069  18.0733
    19.2542  20.4879

          k = 0.1659 0.4148-0.4978 (  1710 PWs)   bands (ev):

   -69.5090 -39.4179 -35.6164 -35.6139 -35.5802 -15.8714 -15.8478 -15.6191
    13.6022  14.1123  15.1881  15.1890  16.6936  17.1063  17.6948  18.0523
    19.3067  20.6278

          k = 0.1659-0.4978-0.4978 (  1724 PWs)   bands (ev):

   -69.5088 -39.4151 -35.6169 -35.6169 -35.5799 -15.8680 -15.8680 -15.6171
    13.5490  14.0744  15.1399  15.1399  17.2959  17.2959  17.4400  17.8467
    19.3797  21.9837

          k = 0.2489 0.2489 0.2489 (  1722 PWs)   bands (ev):

   -69.5112 -39.4448 -35.5953 -35.5953 -35.5905 -15.7351 -15.7230 -15.7230
    13.0458  15.0105  15.0105  15.4779  15.5279  15.5279  18.5850  18.5850
    19.3874  19.3874

          k = 0.2489 0.2489 0.3319 (  1715 PWs)   bands (ev):

   -69.5104 -39.4356 -35.6043 -35.5939 -35.5926 -15.8057 -15.7192 -15.7172
    13.5827  14.9675  15.0719  15.4155  15.4737  15.5433  18.4130  18.4220
    19.1366  19.7873

          k = 0.2489 0.2489 0.4148 (  1713 PWs)   bands (ev):

   -69.5098 -39.4288 -35.6115 -35.5935 -35.5930 -15.8624 -15.7129 -15.7110
    13.9803  14.6709  15.1175  15.3320  15.5898  15.9317  18.0424  18.2579
    19.0252  20.1363

          k = 0.2489 0.2489-0.4978 (  1710 PWs)   bands (ev):

   -69.5096 -39.4263 -35.6141 -35.5938 -35.5926 -15.8831 -15.7114 -15.7080
    14.1440  14.5201  15.1360  15.2992  15.6686  16.1724  17.7861  18.1993
    18.9935  20.2669

          k = 0.2489 0.3319 0.3319 (  1717 PWs)   bands (ev):

   -69.5096 -39.4260 -35.6053 -35.6029 -35.5927 -15.7989 -15.7929 -15.7105
    14.0000  14.7758  15.2868  15.3108  15.4546  15.5859  18.2213  18.2978
    19.3784  19.9112

          k = 0.2489 0.3319 0.4148 (  1720 PWs)   bands (ev):

   -69.5091 -39.4190 -35.6120 -35.6042 -35.5922 -15.8522 -15.7888 -15.7048
    14.1666  14.6075  15.2142  15.2649  15.6604  15.9956  17.9444  18.1293
    19.4169  20.2452

          k = 0.2489 0.3319-0.4978 (  1716 PWs)   bands (ev):

   -69.5088 -39.4164 -35.6147 -35.6043 -35.5920 -15.8726 -15.7863 -15.7026
    14.1862  14.5486  15.1940  15.2334  15.7654  16.2825  17.7075  18.0848
    19.4177  20.3989

          k = 0.2489 0.4148 0.4148 (  1715 PWs)   bands (ev):

   -69.5085 -39.4118 -35.6127 -35.6119 -35.5914 -15.8456 -15.8436 -15.6995
    14.1322  14.5249  15.1435  15.2019  16.1376  16.2159  17.8137  17.9317
    19.6265  20.5125

          k = 0.2489 0.4148-0.4978 (  1718 PWs)   bands (ev):

   -69.5083 -39.4092 -35.6152 -35.6124 -35.5911 -15.8649 -15.8419 -15.6975
    14.0970  14.4930  15.1336  15.1396  16.2727  16.5195  17.6023  17.8980
    19.6753  20.6701

          k = 0.2489-0.4978-0.4978 (  1732 PWs)   bands (ev):

   -69.5081 -39.4065 -35.6154 -35.6154 -35.5908 -15.8621 -15.8621 -15.6957
    14.0534  14.4662  15.0953  15.0953  16.6284  16.6284  17.4496  17.8112
    19.7434  23.1444

          k = 0.3319 0.3319 0.3319 (  1709 PWs)   bands (ev):

   -69.5088 -39.4166 -35.6039 -35.6039 -35.6028 -15.7896 -15.7870 -15.7870
    14.5369  14.8402  15.2127  15.2127  15.4488  15.4488  18.0951  18.0951
    19.8674  19.8674

          k = 0.3319 0.3319 0.4148 (  1716 PWs)   bands (ev):

   -69.5083 -39.4097 -35.6114 -35.6033 -35.6028 -15.8440 -15.7827 -15.7813
    14.6033  14.7992  15.1845  15.3143  15.4041  15.8013  17.8263  17.9737
    19.8611  20.3091

          k = 0.3319 0.3319-0.4978 (  1718 PWs)   bands (ev):

   -69.5081 -39.4072 -35.6143 -35.6034 -35.6025 -15.8644 -15.7811 -15.7786
    14.5599  14.7565  15.2170  15.2206  15.5554  16.0373  17.6377  17.9347
    19.8620  20.4920

          k = 0.3319 0.4148 0.4148 (  1717 PWs)   bands (ev):

   -69.5077 -39.4029 -35.6112 -35.6109 -35.6022 -15.8383 -15.8377 -15.7770
    14.6567  14.8607  15.1142  15.2638  15.6846  15.8505  17.6861  17.8162
    20.1092  20.5439

          k = 0.3319 0.4148-0.4978 (  1724 PWs)   bands (ev):

   -69.5075 -39.4004 -35.6139 -35.6109 -35.6019 -15.8584 -15.8359 -15.7751
    14.6505  14.8220  15.1505  15.1519  15.8244  16.0294  17.5503  17.7760
    20.1520  20.7087

          k = 0.3319-0.4978-0.4978 (  1716 PWs)   bands (ev):

   -69.5073 -39.3979 -35.6138 -35.6138 -35.6015 -15.8562 -15.8562 -15.7734
    14.6535  14.8490  15.0841  15.0841  16.0696  16.0696  17.4592  17.7153
    20.2207  20.8606

          k = 0.4148 0.4148 0.4148 (  1712 PWs)   bands (ev):

   -69.5071 -39.3963 -35.6103 -35.6101 -35.6101 -15.8334 -15.8334 -15.8327
    14.8525  15.1442  15.1442  15.4353  15.5342  15.5342  17.6336  17.6336
    20.5683  20.5683

          k = 0.4148 0.4148-0.4978 (  1704 PWs)   bands (ev):

   -69.5069 -39.3939 -35.6130 -35.6100 -35.6097 -15.8537 -15.8318 -15.8310
    14.9831  14.9954  15.2117  15.3636  15.5065  15.7231  17.5177  17.6197
    20.5773  20.7676

          k = 0.4148-0.4978-0.4978 (  1704 PWs)   bands (ev):

   -69.5067 -39.3916 -35.6127 -35.6127 -35.6094 -15.8519 -15.8519 -15.8298
    15.1198  15.1360  15.1360  15.2021  15.6523  15.6523  17.4662  17.5621
    20.6796  20.8754

          k =-0.4978-0.4978-0.4978 (  1736 PWs)   bands (ev):

   -69.5065 -39.3893 -35.6123 -35.6123 -35.6123 -15.8504 -15.8504 -15.8504
    15.2163  15.2163  15.2163  15.4464  15.4464  15.4464  17.4687  17.4687
    20.8808  25.7565

     the Fermi energy is    17.3308 ev

!    total energy              =    -369.65927518 Ry
     estimated scf accuracy    <          3.3E-11 Ry
     smearing contrib. (-TS)   =       0.00006225 Ry
     internal energy E=F+TS    =    -369.65933743 Ry

     The total energy is F=E-TS. E is the sum of the following terms:
     one-electron contribution =    -157.05970005 Ry
     hartree contribution      =      93.21159736 Ry
     xc contribution           =     -47.25182427 Ry
     ewald contribution        =    -258.55941047 Ry

     convergence has been achieved in  31 iterations

     negative rho (up, down):  9.099E-04 0.000E+00

     Forces acting on atoms (cartesian axes, Ry/au):

     atom    1 type  1   force =     0.00000000    0.00000000    0.00000000
     atom    2 type  2   force =     0.00000000    0.00000000    0.00000000

     Total force =     0.000000     Total SCF correction =     0.000000


     Computing stress (Cartesian axis) and pressure


     negative rho (up, down):  9.099E-04 0.000E+00
          total   stress  (Ry/bohr**3)                   (kbar)     P=        0.45
   0.00000308   0.00000000   0.00000000            0.45        0.00        0.00
   0.00000000   0.00000308   0.00000000            0.00        0.45        0.00
   0.00000000   0.00000000   0.00000308            0.00        0.00        0.45


     Writing all to output data dir ./out/FeTi.save/
 
     init_run     :      3.74s CPU      3.88s WALL (       2 calls)
     electrons    :     54.97s CPU     55.95s WALL (       4 calls)
     update_pot   :      2.74s CPU      2.74s WALL (       2 calls)
     forces       :      3.17s CPU      3.18s WALL (       4 calls)
     stress       :      7.25s CPU      7.28s WALL (       4 calls)

     Called by init_run:
     wfcinit      :      0.33s CPU      0.36s WALL (       2 calls)
     potinit      :      0.86s CPU      0.87s WALL (       2 calls)
     hinit0       :      2.42s CPU      2.51s WALL (       2 calls)

     Called by electrons:
     c_bands      :     38.58s CPU     39.14s WALL (     104 calls)
     sum_band     :      9.97s CPU     10.14s WALL (     104 calls)
     v_of_rho     :      3.10s CPU      3.13s WALL (     108 calls)
     newd         :      2.98s CPU      3.11s WALL (     108 calls)
     mix_rho      :      0.36s CPU      0.37s WALL (     104 calls)

     Called by c_bands:
     init_us_2    :      0.82s CPU      0.85s WALL (    2616 calls)
     init_us_2:cp :      0.82s CPU      0.85s WALL (    2616 calls)
     cegterg      :     30.71s CPU     30.97s WALL (    1248 calls)

     Called by *egterg:
     cdiaghg      :      0.98s CPU      1.01s WALL (    4259 calls)
     h_psi        :     25.52s CPU     25.73s WALL (    4307 calls)
     s_psi        :      0.85s CPU      0.86s WALL (    4307 calls)
     g_psi        :      0.19s CPU      0.19s WALL (    3035 calls)

     Called by h_psi:
     h_psi:calbec :      0.85s CPU      0.86s WALL (    4307 calls)
     vloc_psi     :     23.73s CPU     23.92s WALL (    4307 calls)
     add_vuspsi   :      0.86s CPU      0.87s WALL (    4307 calls)

     General routines
     calbec       :      1.23s CPU      1.24s WALL (    5795 calls)
     fft          :      1.25s CPU      1.27s WALL (    1498 calls)
     ffts         :      0.05s CPU      0.05s WALL (     212 calls)
     fftw         :     26.81s CPU     27.02s WALL (  129518 calls)
     interpolate  :      0.13s CPU      0.13s WALL (     108 calls)
 
     Parallel routines
 
     PWSCF        :   1m12.24s CPU   1m14.48s WALL

 
   This run was terminated on:  17:55:55  10Jun2026            

=------------------------------------------------------------------------------=
   JOB DONE.
=------------------------------------------------------------------------------=
