
     Program PWSCF v.7.1 starts on 11Jun2026 at  3:48:44 

     This program is part of the open-source Quantum ESPRESSO suite
     for quantum simulation of materials; please cite
         "P. Giannozzi et al., J. Phys.:Condens. Matter 21 395502 (2009);
         "P. Giannozzi et al., J. Phys.:Condens. Matter 29 465901 (2017);
         "P. Giannozzi et al., J. Chem. Phys. 152 154105 (2020);
          URL http://www.quantum-espresso.org", 
     in publications or presentations arising from this work. More details at
     http://www.quantum-espresso.org/quote

     Parallel version (MPI & OpenMP), running on       7 processor cores
     Number of MPI processes:                 7
     Threads/MPI process:                     1

     MPI processes distributed on     7 nodes
     223481 MiB available memory on the printing compute node when the environment starts
 
     Waiting for input...
     Reading input from standard input
Warning: card &CELL ignored
Warning: card / ignored
Warning: card &FCP ignored
Warning: card / ignored
Warning: card &RISM ignored
Warning: card / ignored

     Current dimensions of program PWSCF are:
     Max number of different atomic species (ntypx) = 10
     Max number of k-points (npk) =  40000
     Max angular momentum in pseudopotentials (lmaxx) =  4

     IMPORTANT: XC functional enforced from input :
     Exchange-correlation= VDW-DF2-B86R
                           (   1   4  26   0   2   0   0)
     Any further DFT definition will be discarded
     Please, verify this is what you really want

     Message from routine setup:
     using ibrav=0 with symmetry is DISCOURAGED, use correct ibrav instead
 
     R & G space division:  proc/nbgrp/npool/nimage =       7
     Subspace diagonalization in iterative solution of the eigenvalue problem:
     a serial algorithm will be used

 
     Parallelization info
     --------------------
     sticks:   dense  smooth     PW     G-vecs:    dense   smooth      PW
     Min          84      34     12                 5767     1452     278
     Max          86      35     13                 5778     1463     283
     Sum         595     241     85                40391    10203    1957
 
     Using Slab Decomposition
 


     bravais-lattice index     =            0
     lattice parameter (alat)  =       4.6633  a.u.
     unit-cell volume          =     298.9498 (a.u.)^3
     number of atoms/cell      =            4
     number of atomic types    =            1
     number of electrons       =        16.00
     number of Kohn-Sham states=           12
     kinetic-energy cutoff     =      40.0000  Ry
     charge density cutoff     =     400.0000  Ry
     scf convergence threshold =      1.0E-08
     mixing beta               =       0.3000
     number of iterations used =            8  plain     mixing
     Exchange-correlation= VDW-DF2-B86R
                           (   1   4  26   0   2   0   0)

     celldm(1)=   4.663315  celldm(2)=   0.000000  celldm(3)=   0.000000
     celldm(4)=   0.000000  celldm(5)=   0.000000  celldm(6)=   0.000000

     crystal axes: (cart. coord. in units of alat)
               a(1) = (   1.000000   0.000000   0.000000 )  
               a(2) = (  -0.500000   0.866025   0.000000 )  
               a(3) = (   0.000000   0.000000   3.403952 )  

     reciprocal axes: (cart. coord. in units 2 pi/alat)
               b(1) = (  1.000000  0.577350  0.000000 )  
               b(2) = (  0.000000  1.154701  0.000000 )  
               b(3) = (  0.000000  0.000000  0.293776 )  


     PseudoPot. # 1 for C  read from file:
     /home/k0750/k075000/PSPOT/c_pbe_v1.2.uspp.F.UPF
     MD5 check sum: d1aef80898a10debaa0f26306b886e00
     Pseudo is Ultrasoft + core correction, Zval =  4.0
     Generated by new atomic code, or converted to UPF format
     Using radial grid of  721 points,  4 beta functions with: 
                l(1) =   0
                l(2) =   0
                l(3) =   1
                l(4) =   1
     Q(r) pseudized with  8 coefficients,  rinner =    1.100   1.100   1.100


     atomic species   valence    mass     pseudopotential
        C              4.00    12.01100     C ( 1.00)

      8 Sym. Ops., with inversion, found ( 4 have fractional translation)



   Cartesian axes

     site n.     atom                  positions (alat units)
         1           C   tau(   1) = (   0.0000000   0.0000000   2.5529639  )
         2           C   tau(   2) = (   0.0000000   0.0000000   0.8509880  )
         3           C   tau(   3) = (  -0.0000050   0.5773532   2.5529639  )
         4           C   tau(   4) = (   0.5000050   0.2886722   0.8509880  )

     number of k points=   215  Marzari-Vanderbilt smearing, width (Ry)=  0.0100

     Number of k-points >= 100: set verbosity='high' to print them.

     Dense  grid:    40391 G-vectors     FFT dimensions: (  30,  30, 108)

     Smooth grid:    10203 G-vectors     FFT dimensions: (  20,  20,  64)

     Estimated max dynamical RAM per process >      15.81 MB

     Estimated total dynamical RAM >     110.68 MB

     Initial potential from superposition of free atoms

     starting charge      15.9998, renormalised to      16.0000


     %%%%%%%%%%%%%%%%%%%%%%%%%%%%%%%%%%%%%%%%%%%%%%%%%%%%%%%%%%%%%%%%%%%%%%%%
     %                                                                      %
     % You are using vdW-DF, which was implemented by the Thonhauser group. %
     % Please cite the following two papers that made this development      %
     % possible and the two reviews that describe the various versions:     %
     %                                                                      %
     %   T. Thonhauser et al., PRL 115, 136402 (2015).                      %
     %   T. Thonhauser et al., PRB 76, 125112 (2007).                       %
     %   K. Berland et al., Rep. Prog. Phys. 78, 066501 (2015).             %
     %   D.C. Langreth et al., J. Phys.: Condens. Matter 21, 084203 (2009). %
     %                                                                      %
     % If you are calculating stress with vdW-DF, please also cite:         %
     %                                                                      %
     %   R. Sabatini et al., J. Phys.: Condens. Matter 24, 424209 (2012).   %
     %                                                                      %
     %%%%%%%%%%%%%%%%%%%%%%%%%%%%%%%%%%%%%%%%%%%%%%%%%%%%%%%%%%%%%%%%%%%%%%%%

     %%%%%%%%%%%%%%%%%%%%%%%%%%%%%%%%%%%%%%%%%%%%%%%%%%%%%%%%%%%%%%%%%%%%%%%%
     %                                                                      %
     %  vdW-DF NEWS:                                                        %
     %                                                                      %
     %  * vdW-DF3 is now available. DOI: 10.1021/acs.jctc.0c00471           %
     %    use with input_dft = 'vdW-DF3-opt1' or 'vdW-DF3-opt2'             %
     %                                                                      %
     %  * Unscreened and range-separated vdW-DF hybrid functionals          %
     %    DOI: 10.1063/1.4986522 and 10.1088/1361-648X/ac2ad2               %
     %    use with input_dft = 'vdW-DF-cx0' (etc) and 'vdW-DF-ahcx'         %
     %                                                                      %
     %%%%%%%%%%%%%%%%%%%%%%%%%%%%%%%%%%%%%%%%%%%%%%%%%%%%%%%%%%%%%%%%%%%%%%%%


     Starting wfcs are   16 randomized atomic wfcs

     total cpu time spent up to now is       13.5 secs

     Self-consistent Calculation

     iteration #  1     ecut=    40.00 Ry     beta= 0.30
     Davidson diagonalization with overlap
     ethr =  1.00E-02,  avg # of iterations =  3.0

     total cpu time spent up to now is       14.9 secs

     total energy              =     -46.04057741 Ry
     estimated scf accuracy    <       0.37988650 Ry

     iteration #  2     ecut=    40.00 Ry     beta= 0.30
     Davidson diagonalization with overlap
     ethr =  2.37E-03,  avg # of iterations =  1.5

     total cpu time spent up to now is       16.0 secs

     total energy              =     -45.97142295 Ry
     estimated scf accuracy    <       0.13529269 Ry

     iteration #  3     ecut=    40.00 Ry     beta= 0.30
     Davidson diagonalization with overlap
     ethr =  8.46E-04,  avg # of iterations =  4.3

     total cpu time spent up to now is       17.4 secs

     total energy              =     -45.99701394 Ry
     estimated scf accuracy    <       0.00383692 Ry

     iteration #  4     ecut=    40.00 Ry     beta= 0.30
     Davidson diagonalization with overlap
     ethr =  2.40E-05,  avg # of iterations =  4.9

     total cpu time spent up to now is       19.0 secs

     total energy              =     -45.99461806 Ry
     estimated scf accuracy    <       0.00895497 Ry

     iteration #  5     ecut=    40.00 Ry     beta= 0.30
     Davidson diagonalization with overlap
     ethr =  2.40E-05,  avg # of iterations =  2.7

     total cpu time spent up to now is       20.3 secs

     total energy              =     -45.99612983 Ry
     estimated scf accuracy    <       0.00000406 Ry

     iteration #  6     ecut=    40.00 Ry     beta= 0.30
     Davidson diagonalization with overlap
     ethr =  2.53E-08,  avg # of iterations =  4.3

     total cpu time spent up to now is       21.8 secs

     total energy              =     -45.99613410 Ry
     estimated scf accuracy    <       0.00000095 Ry

     iteration #  7     ecut=    40.00 Ry     beta= 0.30
     Davidson diagonalization with overlap
     ethr =  5.95E-09,  avg # of iterations =  2.0

     total cpu time spent up to now is       22.9 secs

     total energy              =     -45.99613457 Ry
     estimated scf accuracy    <       0.00000022 Ry

     iteration #  8     ecut=    40.00 Ry     beta= 0.30
     Davidson diagonalization with overlap
     ethr =  1.36E-09,  avg # of iterations =  1.0

     total cpu time spent up to now is       23.8 secs

     total energy              =     -45.99613470 Ry
     estimated scf accuracy    <       0.00000007 Ry

     iteration #  9     ecut=    40.00 Ry     beta= 0.30
     Davidson diagonalization with overlap
     ethr =  4.15E-10,  avg # of iterations =  2.0

     total cpu time spent up to now is       25.0 secs

     End of self-consistent calculation

     Number of k-points >= 100: set verbosity='high' to print the bands.

     the Fermi energy is     4.6712 ev

!    total energy              =     -45.99613487 Ry
     estimated scf accuracy    <          1.2E-10 Ry
     smearing contrib. (-TS)   =      -0.00010420 Ry
     internal energy E=F+TS    =     -45.99603067 Ry

     The total energy is F=E-TS. E is the sum of the following terms:
     one-electron contribution =     -30.98538594 Ry
     hartree contribution      =      22.04145552 Ry
     xc contribution           =     -14.55001973 Ry
     ewald contribution        =     -22.50208053 Ry

     convergence has been achieved in   9 iterations

     Forces acting on atoms (cartesian axes, Ry/au):

     atom    1 type  1   force =    -0.00002169    0.00001252    0.00000000
     atom    2 type  1   force =     0.00002169   -0.00001252    0.00000000
     atom    3 type  1   force =     0.00002165   -0.00001250    0.00000000
     atom    4 type  1   force =    -0.00002165    0.00001250    0.00000000

     Total force =     0.000050     Total SCF correction =     0.000000


     Computing stress (Cartesian axis) and pressure

          total   stress  (Ry/bohr**3)                   (kbar)     P=      -12.59
  -0.00005112  -0.00000002   0.00000000           -7.52       -0.00        0.00
  -0.00000002  -0.00005115   0.00000000           -0.00       -7.52        0.00
   0.00000000   0.00000000  -0.00015452            0.00        0.00      -22.73


     Writing all to output data dir ./tmp/graphite_d_4p20000.save/
 
     init_run     :     13.22s CPU     13.42s WALL (       1 calls)
     electrons    :     10.60s CPU     11.49s WALL (       1 calls)
     forces       :      0.12s CPU      0.13s WALL (       1 calls)
     stress       :      0.27s CPU      0.31s WALL (       1 calls)

     Called by init_run:
     wfcinit      :      0.46s CPU      0.47s WALL (       1 calls)
     potinit      :     12.71s CPU     12.83s WALL (       1 calls)
     hinit0       :      0.03s CPU      0.06s WALL (       1 calls)

     Called by electrons:
     c_bands      :      8.96s CPU      9.48s WALL (       9 calls)
     sum_band     :      1.34s CPU      1.42s WALL (       9 calls)
     v_of_rho     :     12.95s CPU     13.35s WALL (      10 calls)
     newd         :      0.02s CPU      0.05s WALL (      10 calls)
     mix_rho      :      0.01s CPU      0.01s WALL (       9 calls)
     vdW_kernel   :     12.67s CPU     12.71s WALL (       1 calls)

     Called by c_bands:
     init_us_2    :      0.11s CPU      0.11s WALL (    4515 calls)
     init_us_2:cp :      0.10s CPU      0.11s WALL (    4515 calls)
     cegterg      :      8.53s CPU      8.82s WALL (    1935 calls)

     Called by *egterg:
     cdiaghg      :      0.95s CPU      0.98s WALL (    7483 calls)
     h_psi        :      6.77s CPU      7.02s WALL (    7698 calls)
     s_psi        :      0.13s CPU      0.14s WALL (    7698 calls)
     g_psi        :      0.03s CPU      0.03s WALL (    5548 calls)

     Called by h_psi:
     h_psi:calbec :      0.36s CPU      0.37s WALL (    7698 calls)
     vloc_psi     :      6.22s CPU      6.46s WALL (    7698 calls)
     add_vuspsi   :      0.14s CPU      0.15s WALL (    7698 calls)

     General routines
     calbec       :      0.53s CPU      0.54s WALL (   10708 calls)
     fft          :      0.23s CPU      0.69s WALL (     797 calls)
     ffts         :      0.00s CPU      0.01s WALL (      19 calls)
     fftw         :      6.81s CPU      7.07s WALL (  157556 calls)
     interpolate  :      0.00s CPU      0.01s WALL (      10 calls)
 
     Parallel routines
 
     PWSCF        :     24.72s CPU     26.40s WALL

 
   This run was terminated on:   3:49:11  11Jun2026            

=------------------------------------------------------------------------------=
   JOB DONE.
=------------------------------------------------------------------------------=
