
     Program PWSCF v.7.4.1 starts on 10Jul2025 at 17:31:18 

     This program is part of the open-source Quantum ESPRESSO suite
     for quantum simulation of materials; please cite
         "P. Giannozzi et al., J. Phys.:Condens. Matter 21 395502 (2009);
         "P. Giannozzi et al., J. Phys.:Condens. Matter 29 465901 (2017);
         "P. Giannozzi et al., J. Chem. Phys. 152 154105 (2020);
          URL http://www.quantum-espresso.org", 
     in publications or presentations arising from this work. More details at
     http://www.quantum-espresso.org/quote

     Parallel version (MPI & OpenMP), running on      80 processor cores
     Number of MPI processes:                80
     Threads/MPI process:                     1

     MPI processes distributed on     1 nodes
     3057917 MiB available memory on the printing compute node when the environment starts
 
     Waiting for input...
     Reading input from standard input

     Current dimensions of program PWSCF are:
     Max number of different atomic species (ntypx) = 10
     Max number of k-points (npk) =  40000
     Max angular momentum in pseudopotentials (lmaxx) =  4
     Message from routine setup:
     using ibrav=0 with symmetry is DISCOURAGED, use correct ibrav instead
 
     K-points division:     npool     =      20
     R & G space division:  proc/nbgrp/npool/nimage =       4
     Subspace diagonalization in iterative solution of the eigenvalue problem:
     a serial algorithm will be used

 
     Parallelization info
     --------------------
     sticks:   dense  smooth     PW     G-vecs:    dense   smooth      PW
     Min         749     299     88                31071     7857    1259
     Max         750     301     90                31076     7861    1262
     Sum        2997    1201    357               124289    31439    5041
 
     Using Slab Decomposition
 


     bravais-lattice index     =            0
     lattice parameter (alat)  =       7.3562  a.u.
     unit-cell volume          =     398.0737 (a.u.)^3
     number of atoms/cell      =            5
     number of atomic types    =            3
     number of electrons       =        40.00
     number of Kohn-Sham states=           20
     kinetic-energy cutoff     =      70.0000  Ry
     charge density cutoff     =     700.0000  Ry
     scf convergence threshold =      1.0E-08
     mixing beta               =       0.7000
     number of iterations used =            8  plain     mixing
     energy convergence thresh.=      1.0E-04
     force convergence thresh. =      1.0E-03
     press convergence thresh. =      5.0E-01
     Exchange-correlation= SLA  PZ   NOGX NOGC
                           (   1   1   0   0   0   0   0)
     nstep                     =           50


     celldm(1)=   7.356216  celldm(2)=   0.000000  celldm(3)=   0.000000
     celldm(4)=   0.000000  celldm(5)=   0.000000  celldm(6)=   0.000000

     crystal axes: (cart. coord. in units of alat)
               a(1) = (   1.000000   0.000000   0.000000 )  
               a(2) = (   0.000000   1.000000   0.000000 )  
               a(3) = (   0.000000   0.000000   1.000000 )  

     reciprocal axes: (cart. coord. in units 2 pi/alat)
               b(1) = (  1.000000  0.000000  0.000000 )  
               b(2) = (  0.000000  1.000000  0.000000 )  
               b(3) = (  0.000000  0.000000  1.000000 )  


     PseudoPot. # 1 for Sr read from file:
     /home/m0049/m004905/PSPOT/sr_lda_v1.uspp.F.UPF
     MD5 check sum: 66278998e77e07bc7d2e958ca3634663
     Pseudo is Ultrasoft + core correction, Zval = 10.0
     Generated by new atomic code, or converted to UPF format
     Using radial grid of  883 points,  6 beta functions with: 
                l(1) =   0
                l(2) =   0
                l(3) =   1
                l(4) =   1
                l(5) =   2
                l(6) =   2
     Q(r) pseudized with  6 coefficients,  rinner =    1.400   1.400   1.400
                                                       1.400   1.400

     PseudoPot. # 2 for Ti read from file:
     /home/m0049/m004905/PSPOT/ti_lda_v1.4.uspp.F.UPF
     MD5 check sum: 0d9f225c038fe889ca2a701dcc8d72cb
     Pseudo is Ultrasoft + core correction, Zval = 12.0
     Generated by new atomic code, or converted to UPF format
     Using radial grid of  851 points,  6 beta functions with: 
                l(1) =   0
                l(2) =   0
                l(3) =   1
                l(4) =   1
                l(5) =   2
                l(6) =   2
     Q(r) pseudized with  6 coefficients,  rinner =    1.000   1.000   1.000
                                                       1.000   1.000

     PseudoPot. # 3 for O  read from file:
     /home/m0049/m004905/PSPOT/o_lda_v1.2.uspp.F.UPF
     MD5 check sum: 194b818514d2a7dbb603bb78519a4f40
     Pseudo is Ultrasoft + core correction, Zval =  6.0
     Generated by new atomic code, or converted to UPF format
     Using radial grid of  737 points,  5 beta functions with: 
                l(1) =   0
                l(2) =   0
                l(3) =   1
                l(4) =   1
                l(5) =   2
     Q(r) pseudized with  8 coefficients,  rinner =    0.900   0.900   0.900
                                                       0.900   0.900

     atomic species   valence    mass     pseudopotential
     Sr               10.00    87.62000     Sr( 1.00)
     Ti               12.00    47.86700     Ti( 1.00)
     O                 6.00    15.99900     O ( 1.00)

     48 Sym. Ops., with inversion, found



   Cartesian axes

     site n.     atom                  positions (alat units)
         1        Sr     tau(   1) = (   0.0000000   0.0000000   0.0000000  )
         2        Ti     tau(   2) = (   0.5000000   0.5000000   0.5000000  )
         3        O      tau(   3) = (   0.5000000   0.5000000   0.0000000  )
         4        O      tau(   4) = (   0.5000000   0.0000000   0.5000000  )
         5        O      tau(   5) = (   0.0000000   0.5000000   0.5000000  )

     number of k points=    56
                       cart. coord. in units 2pi/alat
        k(    1) = (   0.0000000   0.0000000   0.0000000), wk =   0.0020000
        k(    2) = (   0.0000000   0.0000000   0.1000000), wk =   0.0120000
        k(    3) = (   0.0000000   0.0000000   0.2000000), wk =   0.0120000
        k(    4) = (   0.0000000   0.0000000   0.3000000), wk =   0.0120000
        k(    5) = (   0.0000000   0.0000000   0.4000000), wk =   0.0120000
        k(    6) = (   0.0000000   0.0000000  -0.5000000), wk =   0.0060000
        k(    7) = (   0.0000000   0.1000000   0.1000000), wk =   0.0240000
        k(    8) = (   0.0000000   0.1000000   0.2000000), wk =   0.0480000
        k(    9) = (   0.0000000   0.1000000   0.3000000), wk =   0.0480000
        k(   10) = (   0.0000000   0.1000000   0.4000000), wk =   0.0480000
        k(   11) = (   0.0000000   0.1000000  -0.5000000), wk =   0.0240000
        k(   12) = (   0.0000000   0.2000000   0.2000000), wk =   0.0240000
        k(   13) = (   0.0000000   0.2000000   0.3000000), wk =   0.0480000
        k(   14) = (   0.0000000   0.2000000   0.4000000), wk =   0.0480000
        k(   15) = (   0.0000000   0.2000000  -0.5000000), wk =   0.0240000
        k(   16) = (   0.0000000   0.3000000   0.3000000), wk =   0.0240000
        k(   17) = (   0.0000000   0.3000000   0.4000000), wk =   0.0480000
        k(   18) = (   0.0000000   0.3000000  -0.5000000), wk =   0.0240000
        k(   19) = (   0.0000000   0.4000000   0.4000000), wk =   0.0240000
        k(   20) = (   0.0000000   0.4000000  -0.5000000), wk =   0.0240000
        k(   21) = (   0.0000000  -0.5000000  -0.5000000), wk =   0.0060000
        k(   22) = (   0.1000000   0.1000000   0.1000000), wk =   0.0160000
        k(   23) = (   0.1000000   0.1000000   0.2000000), wk =   0.0480000
        k(   24) = (   0.1000000   0.1000000   0.3000000), wk =   0.0480000
        k(   25) = (   0.1000000   0.1000000   0.4000000), wk =   0.0480000
        k(   26) = (   0.1000000   0.1000000  -0.5000000), wk =   0.0240000
        k(   27) = (   0.1000000   0.2000000   0.2000000), wk =   0.0480000
        k(   28) = (   0.1000000   0.2000000   0.3000000), wk =   0.0960000
        k(   29) = (   0.1000000   0.2000000   0.4000000), wk =   0.0960000
        k(   30) = (   0.1000000   0.2000000  -0.5000000), wk =   0.0480000
        k(   31) = (   0.1000000   0.3000000   0.3000000), wk =   0.0480000
        k(   32) = (   0.1000000   0.3000000   0.4000000), wk =   0.0960000
        k(   33) = (   0.1000000   0.3000000  -0.5000000), wk =   0.0480000
        k(   34) = (   0.1000000   0.4000000   0.4000000), wk =   0.0480000
        k(   35) = (   0.1000000   0.4000000  -0.5000000), wk =   0.0480000
        k(   36) = (   0.1000000  -0.5000000  -0.5000000), wk =   0.0120000
        k(   37) = (   0.2000000   0.2000000   0.2000000), wk =   0.0160000
        k(   38) = (   0.2000000   0.2000000   0.3000000), wk =   0.0480000
        k(   39) = (   0.2000000   0.2000000   0.4000000), wk =   0.0480000
        k(   40) = (   0.2000000   0.2000000  -0.5000000), wk =   0.0240000
        k(   41) = (   0.2000000   0.3000000   0.3000000), wk =   0.0480000
        k(   42) = (   0.2000000   0.3000000   0.4000000), wk =   0.0960000
        k(   43) = (   0.2000000   0.3000000  -0.5000000), wk =   0.0480000
        k(   44) = (   0.2000000   0.4000000   0.4000000), wk =   0.0480000
        k(   45) = (   0.2000000   0.4000000  -0.5000000), wk =   0.0480000
        k(   46) = (   0.2000000  -0.5000000  -0.5000000), wk =   0.0120000
        k(   47) = (   0.3000000   0.3000000   0.3000000), wk =   0.0160000
        k(   48) = (   0.3000000   0.3000000   0.4000000), wk =   0.0480000
        k(   49) = (   0.3000000   0.3000000  -0.5000000), wk =   0.0240000
        k(   50) = (   0.3000000   0.4000000   0.4000000), wk =   0.0480000
        k(   51) = (   0.3000000   0.4000000  -0.5000000), wk =   0.0480000
        k(   52) = (   0.3000000  -0.5000000  -0.5000000), wk =   0.0120000
        k(   53) = (   0.4000000   0.4000000   0.4000000), wk =   0.0160000
        k(   54) = (   0.4000000   0.4000000  -0.5000000), wk =   0.0240000
        k(   55) = (   0.4000000  -0.5000000  -0.5000000), wk =   0.0120000
        k(   56) = (  -0.5000000  -0.5000000  -0.5000000), wk =   0.0020000

     Dense  grid:   124289 G-vectors     FFT dimensions: (  64,  64,  64)

     Smooth grid:    31439 G-vectors     FFT dimensions: (  40,  40,  40)

     Estimated max dynamical RAM per process >      39.19 MB

     Estimated total dynamical RAM >       2.50 GB

     Check: negative core charge=   -0.000002

     Initial potential from superposition of free atoms

     starting charge      38.9729, renormalised to      40.0000

     negative rho (up, down):  6.600E-02 0.000E+00
     Starting wfcs are   35 randomized atomic wfcs

     total cpu time spent up to now is       11.5 secs

     Self-consistent Calculation

     iteration #  1     ecut=    70.00 Ry     beta= 0.70
     Davidson diagonalization with overlap
     ethr =  1.00E-02,  avg # of iterations =  1.7

     negative rho (up, down):  6.457E-02 0.000E+00

     total cpu time spent up to now is       11.9 secs

     total energy              =    -286.61701936 Ry
     estimated scf accuracy    <       0.91810208 Ry

     iteration #  2     ecut=    70.00 Ry     beta= 0.70
     Davidson diagonalization with overlap
     ethr =  2.30E-03,  avg # of iterations =  5.6

     negative rho (up, down):  6.442E-02 0.000E+00

     total cpu time spent up to now is       12.8 secs

     total energy              =    -285.81030943 Ry
     estimated scf accuracy    <       7.59110661 Ry

     iteration #  3     ecut=    70.00 Ry     beta= 0.70
     Davidson diagonalization with overlap
     ethr =  2.30E-03,  avg # of iterations =  5.3

     negative rho (up, down):  6.589E-02 0.000E+00

     total cpu time spent up to now is       13.3 secs

     total energy              =    -287.08125723 Ry
     estimated scf accuracy    <       0.22263970 Ry

     iteration #  4     ecut=    70.00 Ry     beta= 0.70
     Davidson diagonalization with overlap
     ethr =  5.57E-04,  avg # of iterations =  2.0

     negative rho (up, down):  6.658E-02 0.000E+00

     total cpu time spent up to now is       13.4 secs

     total energy              =    -287.07584066 Ry
     estimated scf accuracy    <       0.08112295 Ry

     iteration #  5     ecut=    70.00 Ry     beta= 0.70
     Davidson diagonalization with overlap
     ethr =  2.03E-04,  avg # of iterations =  3.9

     negative rho (up, down):  6.666E-02 0.000E+00

     total cpu time spent up to now is       13.7 secs

     total energy              =    -287.09041241 Ry
     estimated scf accuracy    <       0.00074411 Ry

     iteration #  6     ecut=    70.00 Ry     beta= 0.70
     Davidson diagonalization with overlap
     ethr =  1.86E-06,  avg # of iterations =  5.1

     negative rho (up, down):  6.666E-02 0.000E+00

     total cpu time spent up to now is       13.9 secs

     total energy              =    -287.09124815 Ry
     estimated scf accuracy    <       0.00132707 Ry

     iteration #  7     ecut=    70.00 Ry     beta= 0.70
     Davidson diagonalization with overlap
     ethr =  1.86E-06,  avg # of iterations =  3.9

     negative rho (up, down):  6.665E-02 0.000E+00

     total cpu time spent up to now is       14.0 secs

     total energy              =    -287.09139558 Ry
     estimated scf accuracy    <       0.00002644 Ry

     iteration #  8     ecut=    70.00 Ry     beta= 0.70
     Davidson diagonalization with overlap
     ethr =  6.61E-08,  avg # of iterations =  4.6

     negative rho (up, down):  6.665E-02 0.000E+00

     total cpu time spent up to now is       14.2 secs

     total energy              =    -287.09140835 Ry
     estimated scf accuracy    <       0.00001282 Ry

     iteration #  9     ecut=    70.00 Ry     beta= 0.70
     Davidson diagonalization with overlap
     ethr =  3.20E-08,  avg # of iterations =  3.4

     negative rho (up, down):  6.665E-02 0.000E+00

     total cpu time spent up to now is       14.3 secs

     total energy              =    -287.09140996 Ry
     estimated scf accuracy    <       0.00000035 Ry

     iteration # 10     ecut=    70.00 Ry     beta= 0.70
     Davidson diagonalization with overlap
     ethr =  8.63E-10,  avg # of iterations =  4.6

     negative rho (up, down):  6.665E-02 0.000E+00

     total cpu time spent up to now is       14.5 secs

     total energy              =    -287.09141024 Ry
     estimated scf accuracy    <       0.00000038 Ry

     iteration # 11     ecut=    70.00 Ry     beta= 0.70
     Davidson diagonalization with overlap
     ethr =  8.63E-10,  avg # of iterations =  3.3

     negative rho (up, down):  6.665E-02 0.000E+00

     total cpu time spent up to now is       14.6 secs

     total energy              =    -287.09141028 Ry
     estimated scf accuracy    <       0.00000002 Ry

     iteration # 12     ecut=    70.00 Ry     beta= 0.70
     Davidson diagonalization with overlap
     ethr =  4.82E-11,  avg # of iterations =  4.2

     negative rho (up, down):  6.664E-02 0.000E+00

     total cpu time spent up to now is       14.8 secs

     End of self-consistent calculation

          k = 0.0000 0.0000 0.0000 (  3887 PWs)   bands (ev):

   -45.9332 -22.6669 -22.5315 -22.5315 -22.5315  -7.3295  -6.2874  -6.2874
    -4.7068  -4.7068  -4.7068   6.9643   6.9643   6.9643   8.6020   8.6020
     8.6020   9.4651   9.4651   9.4651

          k = 0.0000 0.0000 0.1000 (  3911 PWs)   bands (ev):

   -45.9331 -22.6753 -22.5312 -22.5312 -22.5277  -7.3351  -6.2973  -6.2832
    -4.7018  -4.7018  -4.6249   6.8274   6.9552   6.9552   8.4613   8.4613
     8.5056   9.1389   9.3935   9.3935

          k = 0.0000 0.0000 0.2000 (  3911 PWs)   bands (ev):

   -45.9328 -22.6964 -22.5303 -22.5303 -22.5183  -7.3791  -6.2720  -6.2644
    -4.6887  -4.6887  -4.4357   6.4618   6.9333   6.9333   8.1263   8.1263
     8.2713   8.4549   9.2711   9.2711

          k = 0.0000 0.0000 0.3000 (  3940 PWs)   bands (ev):

   -45.9324 -22.7213 -22.5293 -22.5293 -22.5079  -7.4726  -6.2582  -6.1402
    -4.6725  -4.6725  -4.2364   5.9895   6.9135   6.9135   7.7655   7.7655
     7.8160   8.0105   9.1687   9.1687

          k = 0.0000 0.0000 0.4000 (  3948 PWs)   bands (ev):

   -45.9321 -22.7408 -22.5284 -22.5284 -22.4999  -7.5630  -6.2469  -5.9961
    -4.6592  -4.6592  -4.0951   5.5895   6.9105   6.9105   7.4053   7.4957
     7.4957   7.8177   9.1023   9.1023

          k = 0.0000 0.0000-0.5000 (  3948 PWs)   bands (ev):

   -45.9320 -22.7481 -22.5280 -22.5280 -22.4970  -7.5989  -6.2426  -5.9334
    -4.6542  -4.6542  -4.0451   5.4330   6.9163   6.9163   7.2667   7.3921
     7.3921   7.7476   9.0793   9.0793

          k = 0.0000 0.1000 0.1000 (  3906 PWs)   bands (ev):

   -45.9330 -22.6809 -22.5384 -22.5309 -22.5192  -7.3322  -6.3103  -6.2806
    -4.6967  -4.6565  -4.5907   6.7245   6.9121   6.9465   8.1586   8.3406
     8.6074   9.0026   9.2026   9.3056

          k = 0.0000 0.1000 0.2000 (  3924 PWs)   bands (ev):

   -45.9327 -22.6965 -22.5421 -22.5300 -22.5110  -7.3544  -6.3065  -6.2545
    -4.6834  -4.6315  -4.4303   6.4010   6.8433   6.9256   7.7236   8.0397
     8.3940   8.6093   9.0568   9.1551

          k = 0.0000 0.1000 0.3000 (  3946 PWs)   bands (ev):

   -45.9323 -22.7171 -22.5405 -22.5289 -22.5056  -7.4274  -6.2620  -6.1757
    -4.6668  -4.6163  -4.2475   5.9624   6.7616   6.9070   7.2730   7.7008
     7.9411   8.4315   8.9460   9.0350

          k = 0.0000 0.1000 0.4000 (  3939 PWs)   bands (ev):

   -45.9320 -22.7343 -22.5370 -22.5281 -22.5028  -7.5067  -6.2368  -6.0549
    -4.6533  -4.6034  -4.1175   5.5792   6.6822   6.9058   6.9529   7.4403
     7.6819   8.2893   8.8712   8.9605

          k = 0.0000 0.1000-0.5000 (  3948 PWs)   bands (ev):

   -45.9319 -22.7409 -22.5352 -22.5277 -22.5020  -7.5394  -6.2285  -5.9997
    -4.6481  -4.5979  -4.0715   5.4267   6.6422   6.8495   6.9132   7.3383
     7.5998   8.2354   8.8448   8.9353

          k = 0.0000 0.2000 0.2000 (  3934 PWs)   bands (ev):

   -45.9324 -22.6988 -22.5562 -22.5291 -22.5063  -7.3128  -6.3640  -6.2156
    -4.6693  -4.5292  -4.3874   6.1931   6.6551   6.9069   7.2116   7.8107
     8.2854   8.5381   8.9410   8.9578

          k = 0.0000 0.2000 0.3000 (  3952 PWs)   bands (ev):

   -45.9320 -22.7063 -22.5615 -22.5281 -22.5077  -7.3135  -6.3465  -6.1701
    -4.6518  -4.4898  -4.2714   5.8627   6.4161   6.7707   6.8903   7.5295
     7.9946   8.4861   8.7678   8.9606

          k = 0.0000 0.2000 0.4000 (  3941 PWs)   bands (ev):

   -45.9317 -22.7160 -22.5577 -22.5272 -22.5132  -7.3513  -6.2635  -6.1454
    -4.6375  -4.4761  -4.1702   5.5453   6.1094   6.6083   6.8922   7.2977
     7.8290   8.4582   8.6649   8.9109

          k = 0.0000 0.2000-0.5000 (  3954 PWs)   bands (ev):

   -45.9316 -22.7203 -22.5540 -22.5269 -22.5169  -7.3720  -6.2054  -6.1525
    -4.6321  -4.4704  -4.1332   5.4094   5.9868   6.5741   6.9036   7.2012
     7.7781   8.4478   8.6311   8.8829

          k = 0.0000 0.3000 0.3000 (  3944 PWs)   bands (ev):

   -45.9316 -22.6950 -22.5781 -22.5270 -22.5175  -7.1939  -6.4205  -6.1462
    -4.6332  -4.3771  -4.2727   5.6476   6.1762   6.1984   6.8735   7.3128
     7.9735   8.3333   8.5331   9.2223

          k = 0.0000 0.3000 0.4000 (  3936 PWs)   bands (ev):

   -45.9313 -22.6897 -22.5810 -22.5319 -22.5262  -7.1359  -6.3877  -6.1695
    -4.6179  -4.3437  -4.2176   5.4369   5.6878   6.1022   6.8736   7.1243
     7.9722   8.2794   8.3889   9.3377

          k = 0.0000 0.3000-0.5000 (  3950 PWs)   bands (ev):

   -45.9312 -22.6893 -22.5770 -22.5409 -22.5259  -7.1271  -6.3149  -6.2241
    -4.6121  -4.3377  -4.1883   5.3787   5.4691   6.0837   6.8880   7.0384
     7.9877   8.2531   8.3414   9.3657

          k = 0.0000 0.4000 0.4000 (  3958 PWs)   bands (ev):

   -45.9310 -22.6634 -22.5959 -22.5560 -22.5254  -6.9321  -6.4604  -6.2422
    -4.6019  -4.2556  -4.2293   5.2225   5.4579   5.7403   6.8627   6.9798
     8.0896   8.2108   8.2416   9.5686

          k = 0.0000 0.4000-0.5000 (  3946 PWs)   bands (ev):

   -45.9309 -22.6519 -22.5956 -22.5726 -22.5250  -6.8492  -6.4322  -6.3321
    -4.5958  -4.2431  -4.2086   5.1389   5.3025   5.6793   6.8714   6.9114
     8.1508   8.1562   8.2185   9.6373

          k = 0.0000-0.5000-0.5000 (  3932 PWs)   bands (ev):

   -45.9308 -22.6197 -22.6026 -22.6026 -22.5247  -6.6461  -6.4746  -6.4746
    -4.5895  -4.2091  -4.2091   5.0254   5.2220   5.5713   6.8640   6.8640
     8.0858   8.2204   8.2204   9.7210

          k = 0.1000 0.1000 0.1000 (  3902 PWs)   bands (ev):

   -45.9329 -22.6845 -22.5380 -22.5380 -22.5128  -7.3227  -6.3013  -6.3013
    -4.6591  -4.6591  -4.5499   6.6189   6.9057   6.9057   8.0694   8.0694
     8.7059   8.8104   9.1607   9.1607

          k = 0.1000 0.1000 0.2000 (  3924 PWs)   bands (ev):

   -45.9326 -22.6959 -22.5443 -22.5371 -22.5064  -7.3270  -6.3023  -6.2774
    -4.6664  -4.6091  -4.4144   6.3282   6.7989   6.8897   7.6611   7.7429
     8.4199   8.6839   8.9447   9.0566

          k = 0.1000 0.1000 0.3000 (  3933 PWs)   bands (ev):

   -45.9322 -22.7128 -22.5434 -22.5360 -22.5042  -7.3816  -6.2470  -6.2173
    -4.6762  -4.5666  -4.2552   5.9314   6.6575   6.8743   7.2486   7.3045
     8.2051   8.5352   8.7624   8.9525

          k = 0.1000 0.1000 0.4000 (  3949 PWs)   bands (ev):

   -45.9319 -22.7280 -22.5382 -22.5351 -22.5054  -7.4504  -6.2217  -6.1000
    -4.6849  -4.5329  -4.1411   5.5691   6.5402   6.8765   6.8920   7.0569
     8.1274   8.3827   8.6284   8.8842

          k = 0.1000 0.1000-0.5000 (  3954 PWs)   bands (ev):

   -45.9318 -22.7340 -22.5351 -22.5348 -22.5067  -7.4799  -6.2119  -6.0469
    -4.6884  -4.5195  -4.1007   5.4211   6.4972   6.7699   6.9187   6.9298
     8.1105   8.3213   8.5767   8.8606

          k = 0.1000 0.2000 0.2000 (  3936 PWs)   bands (ev):

   -45.9323 -22.6966 -22.5558 -22.5387 -22.5037  -7.2767  -6.3445  -6.2433
    -4.6566  -4.5497  -4.3542   6.1189   6.6536   6.8367   7.2178   7.5593
     8.0899   8.7289   8.8743   8.9385

          k = 0.1000 0.2000 0.3000 (  3946 PWs)   bands (ev):

   -45.9319 -22.7020 -22.5614 -22.5375 -22.5071  -7.2655  -6.3249  -6.1915
    -4.6703  -4.4866  -4.2649   5.8260   6.3981   6.7838   6.8069   7.2476
     7.9714   8.5760   8.7476   8.9565

          k = 0.1000 0.2000 0.4000 (  3931 PWs)   bands (ev):

   -45.9316 -22.7103 -22.5576 -22.5358 -22.5150  -7.2948  -6.2432  -6.1574
    -4.6903  -4.4355  -4.1952   5.5364   6.1010   6.5909   6.7982   6.9907
     8.0330   8.3744   8.6851   8.9132

          k = 0.1000 0.2000-0.5000 (  3948 PWs)   bands (ev):

   -45.9315 -22.7143 -22.5537 -22.5341 -22.5207  -7.3127  -6.1816  -6.1640
    -4.6990  -4.4152  -4.1701   5.4060   5.9883   6.5439   6.8202   6.8742
     8.1393   8.2232   8.6636   8.8876

          k = 0.1000 0.3000 0.3000 (  3946 PWs)   bands (ev):

   -45.9315 -22.6904 -22.5778 -22.5370 -22.5169  -7.1419  -6.3912  -6.1496
    -4.6652  -4.4168  -4.2556   5.6326   6.1785   6.2321   6.7455   7.1049
     7.8073   8.5403   8.5477   9.2229

          k = 0.1000 0.3000 0.4000 (  3937 PWs)   bands (ev):

   -45.9312 -22.6850 -22.5807 -22.5381 -22.5295  -7.0791  -6.3597  -6.1535
    -4.6718  -4.3588  -4.2400   5.4462   5.7194   6.1080   6.7337   6.9178
     7.8479   8.3790   8.5203   9.3401

          k = 0.1000 0.3000-0.5000 (  3938 PWs)   bands (ev):

   -45.9311 -22.6845 -22.5767 -22.5434 -22.5330  -7.0681  -6.2981  -6.1902
    -4.6761  -4.3319  -4.2356   5.3788   5.5218   6.0861   6.7828   6.7913
     7.8976   8.3050   8.5063   9.3689

          k = 0.1000 0.4000 0.4000 (  3944 PWs)   bands (ev):

   -45.9309 -22.6597 -22.5954 -22.5577 -22.5322  -6.8743  -6.4249  -6.2106
    -4.6528  -4.3092  -4.2557   5.2795   5.4782   5.7425   6.7103   6.8152
     7.8049   8.3881   8.4588   9.5740

          k = 0.1000 0.4000-0.5000 (  3940 PWs)   bands (ev):

   -45.9308 -22.6488 -22.5952 -22.5734 -22.5321  -6.7902  -6.3996  -6.2904
    -4.6453  -4.2831  -4.2642   5.2221   5.3064   5.6820   6.7363   6.7376
     7.7995   8.3955   8.4447   9.6441

          k = 0.1000-0.5000-0.5000 (  3928 PWs)   bands (ev):

   -45.9307 -22.6178 -22.6022 -22.6022 -22.5318  -6.5802  -6.4370  -6.4370
    -4.6315  -4.2677  -4.2677   5.1195   5.2267   5.5731   6.7165   6.7165
     7.7687   8.4350   8.4350   9.7294

          k = 0.2000 0.2000 0.2000 (  3956 PWs)   bands (ev):

   -45.9320 -22.6921 -22.5549 -22.5549 -22.5041  -7.1974  -6.2912  -6.2912
    -4.6060  -4.6060  -4.2901   5.9393   6.6459   6.6459   7.1696   7.1696
     7.5885   8.8379   8.8379   8.9881

          k = 0.2000 0.2000 0.3000 (  3924 PWs)   bands (ev):

   -45.9316 -22.6908 -22.5639 -22.5537 -22.5111  -7.1425  -6.2895  -6.2195
    -4.6818  -4.5168  -4.2468   5.7268   6.3355   6.6128   6.7803   6.8767
     7.4642   8.7762   8.8092   9.0457

          k = 0.2000 0.2000 0.4000 (  3914 PWs)   bands (ev):

   -45.9313 -22.6944 -22.5602 -22.5527 -22.5231  -7.1390  -6.2334  -6.1554
    -4.7494  -4.4171  -4.2448   5.5107   6.0081   6.5132   6.5235   6.7623
     7.5243   8.7262   8.7558   9.0176

          k = 0.2000 0.2000-0.5000 (  3936 PWs)   bands (ev):

   -45.9312 -22.6969 -22.5531 -22.5524 -22.5322  -7.1463  -6.2001  -6.1292
    -4.7770  -4.3618  -4.2623   5.3970   5.8992   6.4345   6.4729   6.7443
     7.5575   8.7090   8.7263   8.9942

          k = 0.2000 0.3000 0.3000 (  3927 PWs)   bands (ev):

   -45.9312 -22.6783 -22.5767 -22.5566 -22.5220  -7.0052  -6.3085  -6.1645
    -4.7025  -4.5268  -4.2480   5.5956   6.1846   6.3208   6.4918   6.7564
     7.1602   8.7698   8.8707   9.2514

          k = 0.2000 0.3000 0.4000 (  3937 PWs)   bands (ev):

   -45.9309 -22.6717 -22.5800 -22.5556 -22.5376  -6.9236  -6.2869  -6.1151
    -4.7659  -4.4529  -4.2880   5.4611   5.7977   6.1286   6.4382   6.6105
     7.1700   8.7658   8.8613   9.3598

          k = 0.2000 0.3000-0.5000 (  3930 PWs)   bands (ev):

   -45.9308 -22.6709 -22.5757 -22.5516 -22.5510  -6.9039  -6.2554  -6.1047
    -4.7970  -4.3615  -4.3604   5.3783   5.6471   6.0908   6.4139   6.5619
     7.1928   8.7820   8.8319   9.3873

          k = 0.2000 0.4000 0.4000 (  3940 PWs)   bands (ev):

   -45.9306 -22.6493 -22.5944 -22.5634 -22.5494  -6.7172  -6.3228  -6.1284
    -4.7653  -4.4580  -4.3436   5.3761   5.5827   5.7482   6.4259   6.5205
     7.0782   8.8105   8.8866   9.5908

          k = 0.2000 0.4000-0.5000 (  3942 PWs)   bands (ev):

   -45.9305 -22.6399 -22.5941 -22.5761 -22.5507  -6.6287  -6.3073  -6.1754
    -4.7655  -4.4169  -4.4018   5.3147   5.4392   5.6891   6.4348   6.4737
     7.0654   8.8545   8.8689   9.6630

          k = 0.2000-0.5000-0.5000 (  3940 PWs)   bands (ev):

   -45.9304 -22.6127 -22.6011 -22.6011 -22.5503  -6.4026  -6.3284  -6.3284
    -4.7388  -4.4305  -4.4305   5.2361   5.3654   5.5777   6.4454   6.4454
     7.0327   8.8846   8.8846   9.7517

          k = 0.3000 0.3000 0.3000 (  3947 PWs)   bands (ev):

   -45.9308 -22.6630 -22.5755 -22.5755 -22.5337  -6.8378  -6.1901  -6.1901
    -4.6789  -4.6789  -4.2894   5.5507   6.1923   6.1923   6.4365   6.4671
     6.4671   9.0216   9.0216   9.3599

          k = 0.3000 0.3000 0.4000 (  3939 PWs)   bands (ev):

   -45.9305 -22.6529 -22.5815 -22.5745 -22.5501  -6.7108  -6.2061  -6.0738
    -4.8224  -4.5960  -4.3729   5.4661   5.8384   6.1262   6.1972   6.2874
     6.5591   9.0571   9.1753   9.4537

          k = 0.3000 0.3000-0.5000 (  3918 PWs)   bands (ev):

   -45.9304 -22.6508 -22.5748 -22.5741 -22.5636  -6.6676  -6.2070  -6.0218
    -4.8848  -4.5125  -4.4539   5.3697   5.7394   6.0455   6.1943   6.2318
     6.6000   9.0655   9.2231   9.4804

          k = 0.3000 0.4000 0.4000 (  3948 PWs)   bands (ev):

   -45.9302 -22.6345 -22.5930 -22.5772 -22.5656  -6.5039  -6.1707  -6.0393
    -4.8603  -4.6673  -4.4882   5.4107   5.7560   5.7808   6.1400   6.2683
     6.3440   9.2301   9.2870   9.6215

          k = 0.3000 0.4000-0.5000 (  3942 PWs)   bands (ev):

   -45.9301 -22.6273 -22.5928 -22.5812 -22.5734  -6.4040  -6.1746  -6.0270
    -4.8949  -4.6243  -4.5818   5.3124   5.6977   5.7043   6.1739   6.1846
     6.3533   9.2715   9.3284   9.6906

          k = 0.3000-0.5000-0.5000 (  3960 PWs)   bands (ev):

   -45.9300 -22.6064 -22.5997 -22.5997 -22.5730  -6.1713  -6.1645  -6.1645
    -4.8664  -4.6604  -4.6604   5.2325   5.5834   5.6695   6.2108   6.2108
     6.2526   9.3465   9.3465   9.7796

          k = 0.4000 0.4000 0.4000 (  3948 PWs)   bands (ev):

   -45.9299 -22.6195 -22.5920 -22.5920 -22.5780  -6.2904  -6.0096  -6.0096
    -4.8742  -4.8742  -4.6532   5.3524   5.7633   5.7633   5.9127   6.1076
     6.1076   9.5241   9.5241   9.6823

          k = 0.4000 0.4000-0.5000 (  3926 PWs)   bands (ev):

   -45.9298 -22.6133 -22.5918 -22.5915 -22.5890  -6.1656  -6.0441  -5.9305
    -4.9706  -4.8134  -4.7761   5.2532   5.6756   5.7665   5.8951   6.0526
     6.1216   9.5751   9.6284   9.7363

          k = 0.4000-0.5000-0.5000 (  3932 PWs)   bands (ev):

   -45.9297 -22.6013 -22.5986 -22.5986 -22.5913  -5.9858  -5.9858  -5.9731
    -4.9659  -4.8917  -4.8917   5.1745   5.5881   5.7325   5.9161   6.0614
     6.0614   9.6861   9.6861   9.8025

          k =-0.5000-0.5000-0.5000 (  3912 PWs)   bands (ev):

   -45.9296 -22.5994 -22.5982 -22.5982 -22.5982  -5.8944  -5.8944  -5.8944
    -5.0031  -5.0031  -5.0031   5.1053   5.5899   5.5899   6.0106   6.0106
     6.0106   9.8113   9.8113   9.8113

     highest occupied level (ev):     9.8113

!    total energy              =    -287.09141029 Ry
     estimated scf accuracy    <          7.7E-09 Ry

     The total energy is the sum of the following terms:
     one-electron contribution =     -76.26884575 Ry
     hartree contribution      =      60.23016765 Ry
     xc contribution           =     -57.87677163 Ry
     ewald contribution        =    -213.17596056 Ry

     convergence has been achieved in  12 iterations

     negative rho (up, down):  6.664E-02 0.000E+00

     Forces acting on atoms (cartesian axes, Ry/au):

     atom    1 type  1   force =     0.00000000    0.00000000    0.00000000
     atom    2 type  2   force =     0.00000000    0.00000000    0.00000000
     atom    3 type  3   force =     0.00000000    0.00000000   -0.00000000
     atom    4 type  3   force =     0.00000000    0.00000000    0.00000000
     atom    5 type  3   force =     0.00000000    0.00000000    0.00000000

     Total force =     0.000000     Total SCF correction =     0.000000


     Computing stress (Cartesian axis) and pressure


     negative rho (up, down):  6.664E-02 0.000E+00
          total   stress  (Ry/bohr**3)                   (kbar)     P=      -51.74
  -0.00035173   0.00000000   0.00000000          -51.74        0.00        0.00
   0.00000000  -0.00035173   0.00000000            0.00      -51.74        0.00
   0.00000000   0.00000000  -0.00035173            0.00        0.00      -51.74


     BFGS Geometry Optimization
     Energy error            =      3.8E-03 Ry
     Gradient error          =      2.6E-31 Ry/Bohr
     Cell gradient error     =      5.2E+01 kbar

     number of scf cycles    =   1
     number of bfgs steps    =   0

     enthalpy           new  =    -287.0914102881 Ry

     new trust radius        =       0.0350880297 bohr
     new conv_thr            =       0.0000000100 Ry

     new unit-cell volume =    387.66474 a.u.^3 (    57.44599 Ang^3 )
     density =      5.30381 g/cm^3

CELL_PARAMETERS (angstrom)
   3.858512411   0.000000000   0.000000000
   0.000000000   3.858512411   0.000000000
   0.000000000   0.000000000   3.858512411

ATOMIC_POSITIONS (crystal)
Sr               0.0000000000        0.0000000000        0.0000000000
Ti               0.5000000000        0.5000000000        0.5000000000
O                0.5000000000        0.5000000000       -0.0000000000
O                0.5000000000        0.0000000000        0.5000000000
O                0.0000000000        0.5000000000        0.5000000000



     Writing config-only to output data dir ./out/SrTiO3.save/ :
     XML data file
     NEW-OLD atomic charge density approx. for the potential
     New effective cutoffs (rho, wfc):  711.36   71.25

     Check: negative core charge=   -0.000002

     negative rho (up, down):  6.647E-02 0.000E+00

     total cpu time spent up to now is       15.0 secs

     Self-consistent Calculation

     iteration #  1     ecut=    70.00 Ry     beta= 0.70
     Davidson diagonalization with overlap
     ethr =  1.00E-06,  avg # of iterations =  5.1

     negative rho (up, down):  6.649E-02 0.000E+00

     total cpu time spent up to now is       15.2 secs

     total energy              =    -287.09328118 Ry
     estimated scf accuracy    <       0.00006780 Ry

     iteration #  2     ecut=    70.00 Ry     beta= 0.70
     Davidson diagonalization with overlap
     ethr =  1.69E-07,  avg # of iterations =  3.3

     negative rho (up, down):  6.648E-02 0.000E+00

     total cpu time spent up to now is       15.4 secs

     total energy              =    -287.09330106 Ry
     estimated scf accuracy    <       0.00003859 Ry

     iteration #  3     ecut=    70.00 Ry     beta= 0.70
     Davidson diagonalization with overlap
     ethr =  9.65E-08,  avg # of iterations =  3.2

     negative rho (up, down):  6.647E-02 0.000E+00

     total cpu time spent up to now is       15.5 secs

     total energy              =    -287.09330975 Ry
     estimated scf accuracy    <       0.00000183 Ry

     iteration #  4     ecut=    70.00 Ry     beta= 0.70
     Davidson diagonalization with overlap
     ethr =  4.58E-09,  avg # of iterations =  3.6

     negative rho (up, down):  6.647E-02 0.000E+00

     total cpu time spent up to now is       15.6 secs

     total energy              =    -287.09331026 Ry
     estimated scf accuracy    <       0.00000020 Ry

     iteration #  5     ecut=    70.00 Ry     beta= 0.70
     Davidson diagonalization with overlap
     ethr =  4.96E-10,  avg # of iterations =  3.9

     negative rho (up, down):  6.647E-02 0.000E+00

     total cpu time spent up to now is       15.8 secs

     total energy              =    -287.09331030 Ry
     estimated scf accuracy    <       0.00000004 Ry

     iteration #  6     ecut=    70.00 Ry     beta= 0.70
     Davidson diagonalization with overlap
     ethr =  1.01E-10,  avg # of iterations =  4.2

     negative rho (up, down):  6.647E-02 0.000E+00

     total cpu time spent up to now is       15.9 secs

     total energy              =    -287.09331031 Ry
     estimated scf accuracy    <       0.00000001 Ry

     iteration #  7     ecut=    70.00 Ry     beta= 0.70
     Davidson diagonalization with overlap
     ethr =  2.64E-11,  avg # of iterations =  4.0

     negative rho (up, down):  6.647E-02 0.000E+00

     total cpu time spent up to now is       16.1 secs

     End of self-consistent calculation

          k = 0.0000 0.0000 0.0000 (  3887 PWs)   bands (ev):

   -45.4389 -22.2062 -22.0591 -22.0591 -22.0591  -7.0421  -5.9808  -5.9808
    -4.2567  -4.2567  -4.2567   7.3339   7.3339   7.3339   8.9397   8.9397
     8.9397   9.8678   9.8678   9.8678

          k = 0.0000 0.0000 0.1009 (  3911 PWs)   bands (ev):

   -45.4388 -22.2160 -22.0588 -22.0588 -22.0545  -7.0484  -5.9879  -5.9762
    -4.2512  -4.2512  -4.1711   7.1921   7.3221   7.3221   8.7941   8.7941
     8.8384   9.5321   9.7943   9.7943

          k = 0.0000 0.0000 0.2018 (  3911 PWs)   bands (ev):

   -45.4384 -22.2402 -22.0578 -22.0578 -22.0436  -7.0972  -5.9641  -5.9444
    -4.2367  -4.2367  -3.9722   6.8123   7.2926   7.2926   8.4505   8.4505
     8.5929   8.8269   9.6679   9.6679

          k = 0.0000 0.0000 0.3027 (  3940 PWs)   bands (ev):

   -45.4380 -22.2687 -22.0565 -22.0565 -22.0313  -7.1991  -5.9491  -5.8030
    -4.2187  -4.2187  -3.7611   6.3190   7.2619   7.2619   8.0838   8.0838
     8.1677   8.3204   9.5622   9.5622

          k = 0.0000 0.0000 0.4035 (  3948 PWs)   bands (ev):

   -45.4376 -22.2908 -22.0555 -22.0555 -22.0221  -7.2965  -5.9368  -5.6429
    -4.2040  -4.2040  -3.6106   5.8990   7.2480   7.2480   7.7442   7.8125
     7.8125   8.1193   9.4939   9.4939

          k = 0.0000 0.0000-0.5044 (  3948 PWs)   bands (ev):

   -45.4375 -22.2992 -22.0551 -22.0551 -22.0187  -7.3350  -5.9321  -5.5736
    -4.1984  -4.1984  -3.5572   5.7342   7.2485   7.2485   7.6013   7.7095
     7.7095   8.0463   9.4704   9.4704

          k = 0.0000 0.1009 0.1009 (  3906 PWs)   bands (ev):

   -45.4386 -22.2224 -22.0669 -22.0584 -22.0448  -7.0456  -6.0002  -5.9718
    -4.2456  -4.2056  -4.1335   7.0813   7.2796   7.3106   8.4820   8.6687
     8.9450   9.3938   9.5936   9.7045

          k = 0.0000 0.1009 0.2018 (  3924 PWs)   bands (ev):

   -45.4383 -22.2403 -22.0711 -22.0574 -22.0353  -7.0710  -5.9911  -5.9408
    -4.2308  -4.1786  -3.9653   6.7450   7.2017   7.2820   8.0407   8.3593
     8.7456   8.9608   9.4432   9.5503

          k = 0.0000 0.1009 0.3027 (  3946 PWs)   bands (ev):

   -45.4379 -22.2639 -22.0693 -22.0561 -22.0288  -7.1512  -5.9490  -5.8421
    -4.2124  -4.1613  -3.7727   6.2893   7.1019   7.2523   7.5907   8.0146
     8.2799   8.7673   9.3289   9.4270

          k = 0.0000 0.1009 0.4035 (  3939 PWs)   bands (ev):

   -45.4375 -22.2835 -22.0652 -22.0551 -22.0253  -7.2370  -5.9245  -5.7042
    -4.1973  -4.1468  -3.6349   5.8881   6.9972   7.2398   7.2809   7.7530
     8.0089   8.6214   9.2513   9.3508

          k = 0.0000 0.1009-0.5044 (  3948 PWs)   bands (ev):

   -45.4374 -22.2911 -22.0633 -22.0548 -22.0243  -7.2722  -5.9160  -5.6424
    -4.1916  -4.1406  -3.5860   5.7277   6.9426   7.1865   7.2417   7.6519
     7.9228   8.5667   9.2238   9.3251

          k = 0.0000 0.2018 0.2018 (  3934 PWs)   bands (ev):

   -45.4379 -22.2430 -22.0872 -22.0564 -22.0297  -7.0276  -6.0457  -5.8987
    -4.2151  -4.0748  -3.9177   6.5219   7.0081   7.2550   7.5263   8.1209
     8.6428   8.8867   9.3243   9.3340

          k = 0.0000 0.2018 0.3027 (  3952 PWs)   bands (ev):

   -45.4375 -22.2518 -22.0931 -22.0552 -22.0311  -7.0310  -6.0224  -5.8458
    -4.1956  -4.0318  -3.7973   6.1790   6.7379   7.0963   7.2266   7.8331
     8.3358   8.8403   9.1592   9.3214

          k = 0.0000 0.2018 0.4035 (  3941 PWs)   bands (ev):

   -45.4371 -22.2630 -22.0888 -22.0542 -22.0370  -7.0732  -5.9374  -5.8089
    -4.1796  -4.0155  -3.6920   5.8520   6.3963   6.9474   7.2161   7.6002
     8.1632   8.8144   9.0554   9.2672

          k = 0.0000 0.2018-0.5044 (  3954 PWs)   bands (ev):

   -45.4370 -22.2681 -22.0847 -22.0538 -22.0409  -7.0958  -5.8875  -5.8019
    -4.1735  -4.0089  -3.6533   5.7109   6.2649   6.9151   7.2211   7.5052
     8.1101   8.8051   9.0214   9.2370

          k = 0.0000 0.3027 0.3027 (  3944 PWs)   bands (ev):

   -45.4371 -22.2390 -22.1121 -22.0540 -22.0420  -6.9062  -6.0939  -5.8187
    -4.1746  -3.9158  -3.7984   5.9436   6.4992   6.5119   7.1966   7.6073
     8.3112   8.6881   8.9262   9.5882

          k = 0.0000 0.3027 0.4035 (  3936 PWs)   bands (ev):

   -45.4367 -22.2335 -22.1154 -22.0580 -22.0530  -6.8473  -6.0550  -5.8394
    -4.1576  -3.8783  -3.7436   5.7239   5.9793   6.4253   7.1830   7.4157
     8.3134   8.6333   8.7841   9.7062

          k = 0.0000 0.3027-0.5044 (  3950 PWs)   bands (ev):

   -45.4366 -22.2332 -22.1109 -22.0679 -22.0526  -6.8389  -5.9721  -5.9000
    -4.1510  -3.8711  -3.7137   5.6835   5.7298   6.4075   7.1897   7.3312
     8.3327   8.6048   8.7377   9.7349

          k = 0.0000 0.4035 0.4035 (  3958 PWs)   bands (ev):

   -45.4364 -22.2039 -22.1322 -22.0850 -22.0520  -6.6356  -6.1279  -5.9111
    -4.1395  -3.7868  -3.7566   5.4813   5.7735   6.0360   7.1577   7.2642
     8.4386   8.5996   8.6123   9.9441

          k = 0.0000 0.4035-0.5044 (  3946 PWs)   bands (ev):

   -45.4362 -22.1911 -22.1319 -22.1036 -22.0517  -6.5502  -6.0954  -6.0043
    -4.1326  -3.7724  -3.7363   5.3882   5.6159   5.9739   7.1585   7.1957
     8.5117   8.5551   8.5752  10.0148

          k = 0.0000-0.5044-0.5044 (  3932 PWs)   bands (ev):

   -45.4361 -22.1523 -22.1399 -22.1399 -22.0513  -6.3487  -6.1399  -6.1399
    -4.1255  -3.7369  -3.7369   5.2707   5.5359   5.8564   7.1451   7.1451
     8.4938   8.5799   8.5799  10.1010

          k = 0.1009 0.1009 0.1009 (  3902 PWs)   bands (ev):

   -45.4385 -22.2266 -22.0665 -22.0665 -22.0374  -7.0356  -5.9907  -5.9907
    -4.2081  -4.2081  -4.0890   6.9672   7.2709   7.2709   8.3895   8.3895
     9.0473   9.2033   9.5490   9.5490

          k = 0.1009 0.1009 0.2018 (  3924 PWs)   bands (ev):

   -45.4382 -22.2397 -22.0736 -22.0655 -22.0300  -7.0417  -5.9836  -5.9657
    -4.2151  -4.1555  -3.9468   6.6643   7.1540   7.2483   7.9716   8.0633
     8.7924   9.0237   9.3279   9.4395

          k = 0.1009 0.1009 0.3027 (  3933 PWs)   bands (ev):

   -45.4377 -22.2591 -22.0725 -22.0642 -22.0273  -7.1025  -5.9339  -5.8831
    -4.2246  -4.1087  -3.7802   6.2547   6.9891   7.2221   7.5710   7.6108
     8.5585   8.8683   9.1447   9.3307

          k = 0.1009 0.1009 0.4035 (  3949 PWs)   bands (ev):

   -45.4374 -22.2765 -22.0666 -22.0632 -22.0283  -7.1774  -5.9075  -5.7508
    -4.2331  -4.0714  -3.6602   5.8773   6.8470   7.2086   7.2175   7.3684
     8.4762   8.7098   9.0097   9.2596

          k = 0.1009 0.1009-0.5044 (  3954 PWs)   bands (ev):

   -45.4372 -22.2834 -22.0631 -22.0628 -22.0296  -7.2093  -5.8973  -5.6915
    -4.2365  -4.0566  -3.6177   5.7221   6.7927   7.0991   7.2199   7.2684
     8.4585   8.6460   8.9576   9.2350

          k = 0.1009 0.2018 0.2018 (  3936 PWs)   bands (ev):

   -45.4378 -22.2404 -22.0868 -22.0672 -22.0268  -6.9888  -6.0256  -5.9259
    -4.2048  -4.0964  -3.8809   6.4398   7.0055   7.1867   7.5308   7.8674
     8.4591   9.0824   9.2507   9.3010

          k = 0.1009 0.2018 0.3027 (  3946 PWs)   bands (ev):

   -45.4374 -22.2469 -22.0930 -22.0659 -22.0304  -6.9796  -5.9989  -5.8678
    -4.2188  -4.0285  -3.7887   6.1376   6.7205   7.1016   7.1492   7.5535
     8.3290   8.9343   9.1158   9.3139

          k = 0.1009 0.2018 0.4035 (  3931 PWs)   bands (ev):

   -45.4370 -22.2566 -22.0887 -22.0638 -22.0391  -7.0131  -5.9128  -5.8236
    -4.2396  -3.9709  -3.7183   5.8423   6.3880   6.9218   7.1231   7.3013
     8.3905   8.7306   9.0489   9.2672

          k = 0.1009 0.2018-0.5044 (  3948 PWs)   bands (ev):

   -45.4369 -22.2613 -22.0843 -22.0620 -22.0452  -7.0329  -5.8614  -5.8139
    -4.2486  -3.9477  -3.6933   5.7075   6.2659   6.8778   7.1209   7.2034
     8.5107   8.5649   9.0263   9.2400

          k = 0.1009 0.3027 0.3027 (  3946 PWs)   bands (ev):

   -45.4369 -22.2339 -22.1117 -22.0651 -22.0414  -6.8504  -6.0635  -5.8213
    -4.2123  -3.9582  -3.7787   5.9279   6.5013   6.5458   7.0679   7.4025
     8.1690   8.9029   8.9044   9.5875

          k = 0.1009 0.3027 0.4035 (  3937 PWs)   bands (ev):

   -45.4366 -22.2281 -22.1150 -22.0657 -22.0560  -6.7865  -6.0253  -5.8225
    -4.2187  -3.8944  -3.7660   5.7376   6.0088   6.4308   7.0440   7.2150
     8.2192   8.7329   8.8769   9.7081

          k = 0.1009 0.3027-0.5044 (  3938 PWs)   bands (ev):

   -45.4364 -22.2278 -22.1104 -22.0707 -22.0607  -6.7760  -5.9546  -5.8638
    -4.2232  -3.8629  -3.7648   5.6837   5.7854   6.4097   7.0796   7.0980
     8.2776   8.6515   8.8622   9.7376

          k = 0.1009 0.4035 0.4035 (  3944 PWs)   bands (ev):

   -45.4362 -22.1997 -22.1318 -22.0869 -22.0598  -6.5734  -6.0909  -5.8777
    -4.1969  -3.8443  -3.7839   5.5472   5.7903   6.0381   7.0097   7.1064
     8.1918   8.7411   8.8146   9.9495

          k = 0.1009 0.4035-0.5044 (  3940 PWs)   bands (ev):

   -45.4361 -22.1876 -22.1314 -22.1044 -22.0597  -6.4867  -6.0614  -5.9606
    -4.1883  -3.8147  -3.7962   5.4772   5.6203   5.9767   7.0289   7.0297
     8.1920   8.7489   8.8001  10.0217

          k = 0.1009-0.5044-0.5044 (  3928 PWs)   bands (ev):

   -45.4360 -22.1501 -22.1394 -22.1394 -22.0594  -6.2777  -6.1008  -6.1008
    -4.1725  -3.8000  -3.8000   5.3717   5.5413   5.8582   7.0054   7.0054
     8.1654   8.7916   8.7916  10.1099

          k = 0.2018 0.2018 0.2018 (  3956 PWs)   bands (ev):

   -45.4375 -22.2354 -22.0857 -22.0857 -22.0271  -6.9046  -5.9704  -5.9704
    -4.1557  -4.1557  -3.8119   6.2466   6.9932   6.9932   7.4748   7.4748
     7.9626   9.2022   9.2022   9.3399

          k = 0.2018 0.2018 0.3027 (  3924 PWs)   bands (ev):

   -45.4370 -22.2343 -22.0959 -22.0843 -22.0349  -6.8487  -5.9589  -5.8962
    -4.2353  -4.0625  -3.7675   6.0281   6.6588   6.9429   7.0965   7.1931
     7.8211   9.1334   9.1722   9.3991

          k = 0.2018 0.2018 0.4035 (  3914 PWs)   bands (ev):

   -45.4367 -22.2388 -22.0914 -22.0832 -22.0482  -6.8479  -5.8904  -5.8301
    -4.3061  -3.9542  -3.7695   5.8142   6.2933   6.8285   6.8376   7.1003
     7.8801   9.0787   9.1172   9.3688

          k = 0.2018 0.2018-0.5044 (  3936 PWs)   bands (ev):

   -45.4365 -22.2418 -22.0836 -22.0828 -22.0581  -6.8568  -5.8517  -5.8031
    -4.3349  -3.8911  -3.7930   5.6992   6.1729   6.7598   6.7727   7.0866
     7.9146   9.0598   9.0865   9.3440

          k = 0.2018 0.3027 0.3027 (  3927 PWs)   bands (ev):

   -45.4366 -22.2202 -22.1105 -22.0875 -22.0471  -6.7041  -5.9775  -5.8336
    -4.2579  -4.0755  -3.7700   5.8899   6.5070   6.6379   6.8125   7.0557
     7.5170   9.1235   9.2312   9.6141

          k = 0.2018 0.3027 0.4035 (  3937 PWs)   bands (ev):

   -45.4362 -22.2132 -22.1140 -22.0861 -22.0646  -6.6206  -5.9481  -5.7811
    -4.3248  -3.9967  -3.8156   5.7606   6.0855   6.4509   6.7468   6.9195
     7.5267   9.1174   9.2202   9.7267

          k = 0.2018 0.3027-0.5044 (  3930 PWs)   bands (ev):

   -45.4361 -22.2126 -22.1093 -22.0819 -22.0790  -6.6014  -5.9101  -5.7718
    -4.3574  -3.8992  -3.8938   5.6843   5.9179   6.4140   6.7143   6.8786
     7.5498   9.1335   9.1895   9.7552

          k = 0.2018 0.4035 0.4035 (  3940 PWs)   bands (ev):

   -45.4359 -22.1880 -22.1305 -22.0935 -22.0790  -6.4047  -5.9845  -5.7905
    -4.3229  -4.0041  -3.8777   5.6761   5.8774   6.0439   6.7315   6.8197
     7.4423   9.1644   9.2460   9.9665

          k = 0.2018 0.4035-0.5044 (  3942 PWs)   bands (ev):

   -45.4358 -22.1777 -22.1302 -22.1073 -22.0808  -6.3133  -5.9651  -5.8393
    -4.3225  -3.9604  -3.9414   5.6307   5.7091   5.9845   6.7347   6.7765
     7.4308   9.2112   9.2273  10.0412

          k = 0.2018-0.5044-0.5044 (  3940 PWs)   bands (ev):

   -45.4356 -22.1444 -22.1381 -22.1381 -22.0804  -6.0860  -5.9876  -5.9876
    -4.2922  -3.9750  -3.9750   5.5534   5.6351   5.8630   6.7448   6.7448
     7.4009   9.2439   9.2439  10.1332

          k = 0.3027 0.3027 0.3027 (  3947 PWs)   bands (ev):

   -45.4362 -22.2031 -22.1090 -22.1090 -22.0601  -6.5263  -5.8546  -5.8546
    -4.2372  -4.2372  -3.8160   5.8476   6.5135   6.5135   6.7685   6.7685
     6.7821   9.3823   9.3823   9.7258

          k = 0.3027 0.3027 0.4035 (  3939 PWs)   bands (ev):

   -45.4358 -22.1920 -22.1157 -22.1078 -22.0785  -6.3946  -5.8634  -5.7343
    -4.3888  -4.1505  -3.9078   5.7748   6.1284   6.4512   6.5134   6.5950
     6.8806   9.4156   9.5418   9.8230

          k = 0.3027 0.3027-0.5044 (  3918 PWs)   bands (ev):

   -45.4357 -22.1901 -22.1082 -22.1074 -22.0931  -6.3512  -5.8600  -5.6807
    -4.4544  -4.0627  -3.9944   5.6800   6.0182   6.3702   6.4989   6.5514
     6.9237   9.4233   9.5915   9.8505

          k = 0.3027 0.4035 0.4035 (  3948 PWs)   bands (ev):

   -45.4355 -22.1714 -22.1290 -22.1104 -22.0961  -6.1767  -5.8260  -5.6940
    -4.4295  -4.2277  -4.0335   5.7348   6.0517   6.0734   6.4541   6.5733
     6.6677   9.5944   9.6549   9.9980

          k = 0.3027 0.4035-0.5044 (  3942 PWs)   bands (ev):

   -45.4353 -22.1637 -22.1286 -22.1127 -22.1066  -6.0735  -5.8267  -5.6812
    -4.4657  -4.1825  -4.1343   5.6343   5.9917   5.9943   6.4900   6.4907
     6.6751   9.6371   9.6975  10.0698

          k = 0.3027-0.5044-0.5044 (  3960 PWs)   bands (ev):

   -45.4352 -22.1372 -22.1365 -22.1365 -22.1062  -5.8357  -5.8166  -5.8166
    -4.4339  -4.2211  -4.2211   5.5560   5.8690   5.9599   6.5175   6.5175
     6.5842   9.7156   9.7156  10.1624

          k = 0.4035 0.4035 0.4035 (  3948 PWs)   bands (ev):

   -45.4351 -22.1544 -22.1277 -22.1277 -22.1096  -5.9507  -5.6583  -5.6583
    -4.4474  -4.4474  -4.2113   5.6925   6.0588   6.0588   6.2133   6.4164
     6.4164   9.8982   9.8982  10.0612

          k = 0.4035 0.4035-0.5044 (  3926 PWs)   bands (ev):

   -45.4350 -22.1481 -22.1275 -22.1272 -22.1213  -5.8208  -5.6908  -5.5762
    -4.5492  -4.3841  -4.3427   5.5870   5.9715   6.0619   6.1960   6.3629
     6.4321   9.9505  10.0065  10.1173

          k = 0.4035-0.5044-0.5044 (  3932 PWs)   bands (ev):

   -45.4348 -22.1353 -22.1353 -22.1314 -22.1269  -5.6301  -5.6301  -5.6205
    -4.5439  -4.4672  -4.4672   5.5085   5.8739   6.0290   6.2227   6.3725
     6.3725  10.0658  10.0658  10.1863

          k =-0.5044-0.5044-0.5044 (  3912 PWs)   bands (ev):

   -45.4347 -22.1348 -22.1348 -22.1348 -22.1292  -5.5349  -5.5349  -5.5349
    -4.5850  -4.5850  -4.5850   5.4403   5.8757   5.8757   6.3232   6.3232
     6.3232  10.1955  10.1955  10.1955

     highest occupied level (ev):    10.1955

!    total energy              =    -287.09331032 Ry
     estimated scf accuracy    <          2.3E-09 Ry

     The total energy is the sum of the following terms:
     one-electron contribution =     -73.55554797 Ry
     hartree contribution      =      59.50342990 Ry
     xc contribution           =     -57.97410249 Ry
     ewald contribution        =    -215.06708975 Ry

     convergence has been achieved in   7 iterations

     negative rho (up, down):  6.647E-02 0.000E+00

     Forces acting on atoms (cartesian axes, Ry/au):

     atom    1 type  1   force =     0.00000000    0.00000000   -0.00000000
     atom    2 type  2   force =     0.00000000   -0.00000000    0.00000000
     atom    3 type  3   force =     0.00000000   -0.00000000    0.00000000
     atom    4 type  3   force =     0.00000000    0.00000000    0.00000000
     atom    5 type  3   force =     0.00000000    0.00000000    0.00000000

     Total force =     0.000000     Total SCF correction =     0.000000


     Computing stress (Cartesian axis) and pressure


     negative rho (up, down):  6.647E-02 0.000E+00
          total   stress  (Ry/bohr**3)                   (kbar)     P=       -1.52
  -0.00001031   0.00000000   0.00000000           -1.52        0.00        0.00
   0.00000000  -0.00001031   0.00000000            0.00       -1.52        0.00
   0.00000000   0.00000000  -0.00001031            0.00        0.00       -1.52

     Energy error            =      1.9E-03 Ry
     Gradient error          =      1.1E-30 Ry/Bohr
     Cell gradient error     =      1.5E+00 kbar

     number of scf cycles    =   2
     number of bfgs steps    =   1

     enthalpy           old  =    -287.0914102881 Ry
     enthalpy           new  =    -287.0933103156 Ry

     CASE: enthalpy          _new < enthalpy          _old

     new trust radius        =       0.0010358175 bohr
     new conv_thr            =       0.0000000100 Ry

     new unit-cell volume =    387.35891 a.u.^3 (    57.40067 Ang^3 )
     density =      5.30799 g/cm^3

CELL_PARAMETERS (angstrom)
   3.857497460   0.000000000   0.000000000
   0.000000000   3.857497460   0.000000000
   0.000000000   0.000000000   3.857497460

ATOMIC_POSITIONS (crystal)
Sr               0.0000000000        0.0000000000       -0.0000000000
Ti               0.5000000000        0.5000000000        0.5000000000
O                0.5000000000        0.5000000000       -0.0000000000
O                0.5000000000        0.0000000000        0.5000000000
O                0.0000000000        0.5000000000        0.5000000000



     Writing config-only to output data dir ./out/SrTiO3.save/ :
     XML data file
     NEW-OLD atomic charge density approx. for the potential
     New effective cutoffs (rho, wfc):  711.73   71.28

     Check: negative core charge=   -0.000002

     negative rho (up, down):  6.647E-02 0.000E+00

     total cpu time spent up to now is       16.4 secs

     Self-consistent Calculation

     iteration #  1     ecut=    70.00 Ry     beta= 0.70
     Davidson diagonalization with overlap
     ethr =  1.00E-06,  avg # of iterations =  2.0

     Threshold (ethr) on eigenvalues was too large:
     Diagonalizing with lowered threshold

     Davidson diagonalization with overlap
     ethr =  2.66E-10,  avg # of iterations =  4.4

     negative rho (up, down):  6.647E-02 0.000E+00

     total cpu time spent up to now is       16.7 secs

     total energy              =    -287.09331171 Ry
     estimated scf accuracy    <       0.00000006 Ry

     iteration #  2     ecut=    70.00 Ry     beta= 0.70
     Davidson diagonalization with overlap
     ethr =  1.44E-10,  avg # of iterations =  3.9

     negative rho (up, down):  6.647E-02 0.000E+00

     total cpu time spent up to now is       16.9 secs

     total energy              =    -287.09331172 Ry
     estimated scf accuracy    <       0.00000002 Ry

     iteration #  3     ecut=    70.00 Ry     beta= 0.70
     Davidson diagonalization with overlap
     ethr =  3.93E-11,  avg # of iterations =  3.6

     negative rho (up, down):  6.647E-02 0.000E+00

     total cpu time spent up to now is       17.0 secs

     End of self-consistent calculation

          k = 0.0000 0.0000 0.0000 (  3887 PWs)   bands (ev):

   -45.4243 -22.1924 -22.0452 -22.0452 -22.0452  -7.0333  -5.9714  -5.9714
    -4.2432  -4.2432  -4.2432   7.3452   7.3452   7.3452   8.9500   8.9500
     8.9500   9.8801   9.8801   9.8801

          k = 0.0000 0.0000 0.1009 (  3911 PWs)   bands (ev):

   -45.4242 -22.2022 -22.0449 -22.0449 -22.0406  -7.0397  -5.9785  -5.9668
    -4.2377  -4.2377  -4.1575   7.2032   7.3333   7.3333   8.8043   8.8043
     8.8486   9.5441   9.8065   9.8065

          k = 0.0000 0.0000 0.2018 (  3911 PWs)   bands (ev):

   -45.4239 -22.2266 -22.0438 -22.0438 -22.0295  -7.0886  -5.9547  -5.9347
    -4.2232  -4.2232  -3.9582   6.8230   7.3036   7.3036   8.4604   8.4604
     8.6027   8.8382   9.6800   9.6800

          k = 0.0000 0.0000 0.3027 (  3940 PWs)   bands (ev):

   -45.4234 -22.2552 -22.0426 -22.0426 -22.0172  -7.1907  -5.9396  -5.7927
    -4.2051  -4.2051  -3.7467   6.3290   7.2725   7.2725   8.0934   8.0934
     8.1784   8.3299   9.5742   9.5742

          k = 0.0000 0.0000 0.4037 (  3948 PWs)   bands (ev):

   -45.4231 -22.2775 -22.0416 -22.0416 -22.0079  -7.2884  -5.9274  -5.6321
    -4.1904  -4.1904  -3.5960   5.9084   7.2583   7.2583   7.7545   7.8221
     7.8221   8.1285   9.5059   9.5059

          k = 0.0000 0.0000-0.5046 (  3948 PWs)   bands (ev):

   -45.4229 -22.2858 -22.0412 -22.0412 -22.0044  -7.3270  -5.9227  -5.5626
    -4.1847  -4.1847  -3.5424   5.7433   7.2586   7.2586   7.6116   7.7192
     7.7192   8.0554   9.4824   9.4824

          k = 0.0000 0.1009 0.1009 (  3906 PWs)   bands (ev):

   -45.4241 -22.2086 -22.0530 -22.0445 -22.0308  -7.0368  -5.9907  -5.9624
    -4.2320  -4.1921  -4.1198   7.0921   7.2909   7.3217   8.4919   8.6787
     8.9553   9.4057   9.6055   9.7167

          k = 0.0000 0.1009 0.2018 (  3924 PWs)   bands (ev):

   -45.4237 -22.2267 -22.0572 -22.0435 -22.0212  -7.0623  -5.9815  -5.9312
    -4.2172  -4.1650  -3.9513   6.7555   7.2127   7.2929   8.0503   8.3690
     8.7563   8.9716   9.4550   9.5623

          k = 0.0000 0.1009 0.3027 (  3946 PWs)   bands (ev):

   -45.4233 -22.2504 -22.0554 -22.0422 -22.0147  -7.1428  -5.9395  -5.8320
    -4.1987  -4.1477  -3.7584   6.2992   7.1122   7.2628   7.6003   8.0241
     8.2903   8.7776   9.3405   9.4390

          k = 0.0000 0.1009 0.4037 (  3939 PWs)   bands (ev):

   -45.4229 -22.2701 -22.0513 -22.0412 -22.0111  -7.2288  -5.9150  -5.6935
    -4.1836  -4.1330  -3.6203   5.8975   7.0067   7.2500   7.2909   7.7625
     8.0189   8.6315   9.2629   9.3627

          k = 0.0000 0.1009-0.5046 (  3948 PWs)   bands (ev):

   -45.4228 -22.2778 -22.0494 -22.0408 -22.0101  -7.2641  -5.9064  -5.6314
    -4.1779  -4.1269  -3.5714   5.7369   6.9517   7.1967   7.2517   7.6615
     7.9326   8.5768   9.2354   9.3369

          k = 0.0000 0.2018 0.2018 (  3934 PWs)   bands (ev):

   -45.4234 -22.2294 -22.0734 -22.0425 -22.0156  -7.0189  -6.0361  -5.8890
    -4.2015  -4.0611  -3.9035   6.5319   7.0188   7.2657   7.5359   8.1303
     8.6537   8.8973   9.3355   9.3460

          k = 0.0000 0.2018 0.3027 (  3952 PWs)   bands (ev):

   -45.4229 -22.2382 -22.0793 -22.0412 -22.0170  -7.0223  -6.0125  -5.8359
    -4.1819  -4.0180  -3.7830   6.1886   6.7477   7.1062   7.2368   7.8423
     8.3462   8.8511   9.1711   9.3324

          k = 0.0000 0.2018 0.4037 (  3941 PWs)   bands (ev):

   -45.4226 -22.2495 -22.0750 -22.0402 -22.0229  -7.0647  -5.9275  -5.7986
    -4.1659  -4.0017  -3.6776   5.8613   6.4050   6.9577   7.2260   7.6094
     8.1734   8.8253   9.0673   9.2781

          k = 0.0000 0.2018-0.5046 (  3954 PWs)   bands (ev):

   -45.4224 -22.2546 -22.0709 -22.0399 -22.0268  -7.0874  -5.8778  -5.7912
    -4.1598  -3.9951  -3.6388   5.7200   6.2733   6.9255   7.2308   7.5144
     8.1202   8.8160   9.0333   9.2478

          k = 0.0000 0.3027 0.3027 (  3944 PWs)   bands (ev):

   -45.4225 -22.2254 -22.0984 -22.0400 -22.0279  -6.8974  -6.0840  -5.8087
    -4.1609  -3.9019  -3.7841   5.9526   6.5089   6.5215   7.2064   7.6162
     8.3215   8.6989   8.9382   9.5993

          k = 0.0000 0.3027 0.4037 (  3936 PWs)   bands (ev):

   -45.4221 -22.2199 -22.1017 -22.0439 -22.0390  -6.8385  -6.0449  -5.8294
    -4.1437  -3.8643  -3.7293   5.7326   5.9882   6.4351   7.1924   7.4245
     8.3238   8.6441   8.7962   9.7175

          k = 0.0000 0.3027-0.5046 (  3950 PWs)   bands (ev):

   -45.4220 -22.2196 -22.0972 -22.0539 -22.0387  -6.8301  -5.9617  -5.8901
    -4.1372  -3.8571  -3.6994   5.6927   5.7377   6.4173   7.1988   7.3401
     8.3432   8.6156   8.7497   9.7461

          k = 0.0000 0.4037 0.4037 (  3958 PWs)   bands (ev):

   -45.4218 -22.1902 -22.1186 -22.0710 -22.0381  -6.6266  -6.1178  -5.9010
    -4.1256  -3.7726  -3.7423   5.4891   5.7831   6.0449   7.1666   7.2729
     8.4493   8.6105   8.6245   9.9555

          k = 0.0000 0.4037-0.5046 (  3946 PWs)   bands (ev):

   -45.4216 -22.1774 -22.1183 -22.0896 -22.0377  -6.5411  -6.0852  -5.9944
    -4.1187  -3.7582  -3.7220   5.3957   5.6254   5.9828   7.1672   7.2043
     8.5225   8.5674   8.5861  10.0263

          k = 0.0000-0.5046-0.5046 (  3932 PWs)   bands (ev):

   -45.4215 -22.1383 -22.1263 -22.1263 -22.0373  -6.3396  -6.1298  -6.1298
    -4.1116  -3.7227  -3.7227   5.2782   5.5454   5.8649   7.1536   7.1536
     8.5063   8.5909   8.5909  10.1126

          k = 0.1009 0.1009 0.1009 (  3902 PWs)   bands (ev):

   -45.4239 -22.2129 -22.0526 -22.0526 -22.0234  -7.0268  -5.9813  -5.9813
    -4.1946  -4.1946  -4.0752   6.9778   7.2821   7.2821   8.3992   8.3992
     9.0577   9.2153   9.5608   9.5608

          k = 0.1009 0.1009 0.2018 (  3924 PWs)   bands (ev):

   -45.4236 -22.2261 -22.0598 -22.0516 -22.0159  -7.0330  -5.9739  -5.9562
    -4.2016  -4.1418  -3.9327   6.6745   7.1648   7.2592   7.9810   8.0730
     8.8037   9.0340   9.3396   9.4512

          k = 0.1009 0.1009 0.3027 (  3933 PWs)   bands (ev):

   -45.4231 -22.2456 -22.0586 -22.0503 -22.0131  -7.0940  -5.9244  -5.8730
    -4.2111  -4.0950  -3.7659   6.2645   6.9992   7.2327   7.5808   7.6201
     8.5693   8.8784   9.1564   9.3423

          k = 0.1009 0.1009 0.4037 (  3949 PWs)   bands (ev):

   -45.4228 -22.2631 -22.0527 -22.0493 -22.0141  -7.1691  -5.8979  -5.7401
    -4.2195  -4.0575  -3.6457   5.8867   6.8563   7.2186   7.2274   7.3779
     8.4868   8.7197   9.0214   9.2710

          k = 0.1009 0.1009-0.5046 (  3954 PWs)   bands (ev):

   -45.4226 -22.2700 -22.0492 -22.0489 -22.0154  -7.2011  -5.8877  -5.6806
    -4.2229  -4.0427  -3.6032   5.7312   6.8017   7.1091   7.2290   7.2787
     8.4691   8.6559   8.9693   9.2464

          k = 0.1009 0.2018 0.2018 (  3936 PWs)   bands (ev):

   -45.4232 -22.2268 -22.0729 -22.0533 -22.0127  -6.9801  -6.0159  -5.9162
    -4.1912  -4.0828  -3.8667   6.4495   7.0162   7.1974   7.5403   7.8767
     8.4704   9.0931   9.2621   9.3121

          k = 0.1009 0.2018 0.3027 (  3946 PWs)   bands (ev):

   -45.4228 -22.2333 -22.0792 -22.0520 -22.0163  -6.9709  -5.9890  -5.8579
    -4.2053  -4.0147  -3.7743   6.1470   6.7302   7.1113   7.1596   7.5628
     8.3399   8.9452   9.1270   9.3248

          k = 0.1009 0.2018 0.4037 (  3931 PWs)   bands (ev):

   -45.4224 -22.2431 -22.0748 -22.0499 -22.0249  -7.0045  -5.9028  -5.8133
    -4.2260  -3.9569  -3.7039   5.8515   6.3967   6.9318   7.1330   7.3107
     8.4014   8.7414   9.0600   9.2780

          k = 0.1009 0.2018-0.5046 (  3948 PWs)   bands (ev):

   -45.4223 -22.2478 -22.0705 -22.0480 -22.0311  -7.0244  -5.8516  -5.8032
    -4.2351  -3.9336  -3.6789   5.7167   6.2743   6.8880   7.1301   7.2134
     8.5220   8.5753   9.0374   9.2507

          k = 0.1009 0.3027 0.3027 (  3946 PWs)   bands (ev):

   -45.4224 -22.2203 -22.0980 -22.0512 -22.0273  -6.8415  -6.0535  -5.8113
    -4.1987  -3.9444  -3.7644   5.9368   6.5111   6.5554   7.0777   7.4115
     8.1800   8.9137   8.9155   9.5986

          k = 0.1009 0.3027 0.4037 (  3937 PWs)   bands (ev):

   -45.4220 -22.2145 -22.1013 -22.0517 -22.0420  -6.7776  -6.0151  -5.8124
    -4.2051  -3.8804  -3.7518   5.7464   6.0176   6.4406   7.0534   7.2240
     8.2305   8.7437   8.8878   9.7193

          k = 0.1009 0.3027-0.5046 (  3938 PWs)   bands (ev):

   -45.4219 -22.2143 -22.0967 -22.0566 -22.0468  -6.7671  -5.9441  -5.8538
    -4.2096  -3.8487  -3.7506   5.6929   5.7934   6.4195   7.0887   7.1073
     8.2892   8.6620   8.8731   9.7488

          k = 0.1009 0.4037 0.4037 (  3944 PWs)   bands (ev):

   -45.4216 -22.1860 -22.1181 -22.0729 -22.0459  -6.5643  -6.0807  -5.8676
    -4.1833  -3.8303  -3.7697   5.5553   5.7998   6.0470   7.0188   7.1152
     8.2036   8.7518   8.8255   9.9609

          k = 0.1009 0.4037-0.5046 (  3940 PWs)   bands (ev):

   -45.4215 -22.1739 -22.1178 -22.0905 -22.0458  -6.4775  -6.0511  -5.9506
    -4.1746  -3.8006  -3.7821   5.4849   5.6298   5.9856   7.0377   7.0386
     8.2039   8.7597   8.8110  10.0332

          k = 0.1009-0.5046-0.5046 (  3928 PWs)   bands (ev):

   -45.4214 -22.1361 -22.1258 -22.1258 -22.0454  -6.2685  -6.0905  -6.0905
    -4.1588  -3.7859  -3.7859   5.3794   5.5509   5.8668   7.0142   7.0142
     8.1775   8.8024   8.8024  10.1215

          k = 0.2018 0.2018 0.2018 (  3956 PWs)   bands (ev):

   -45.4229 -22.2218 -22.0718 -22.0718 -22.0130  -6.8957  -5.9606  -5.9606
    -4.1422  -4.1422  -3.7975   6.2559   7.0038   7.0038   7.4840   7.4840
     7.9740   9.2133   9.2133   9.3506

          k = 0.2018 0.2018 0.3027 (  3924 PWs)   bands (ev):

   -45.4224 -22.2206 -22.0821 -22.0705 -22.0207  -6.8397  -5.9488  -5.8863
    -4.2219  -4.0488  -3.7531   6.0372   6.6686   6.9528   7.1061   7.2027
     7.8320   9.1443   9.1832   9.4098

          k = 0.2018 0.2018 0.4037 (  3914 PWs)   bands (ev):

   -45.4221 -22.2252 -22.0776 -22.0694 -22.0341  -6.8391  -5.8800  -5.8202
    -4.2928  -3.9403  -3.7552   5.8234   6.3019   6.8378   6.8474   7.1105
     7.8910   9.0895   9.1282   9.3795

          k = 0.2018 0.2018-0.5046 (  3936 PWs)   bands (ev):

   -45.4219 -22.2283 -22.0698 -22.0689 -22.0440  -6.8480  -5.8411  -5.7932
    -4.3217  -3.8769  -3.7788   5.7084   6.1812   6.7697   6.7818   7.0970
     7.9255   9.0705   9.0974   9.3547

          k = 0.2018 0.3027 0.3027 (  3927 PWs)   bands (ev):

   -45.4220 -22.2065 -22.0968 -22.0737 -22.0330  -6.6949  -5.9674  -5.8236
    -4.2446  -4.0620  -3.7556   5.8988   6.5167   6.6476   6.8223   7.0648
     7.5279   9.1343   9.2421   9.6251

          k = 0.2018 0.3027 0.4037 (  3937 PWs)   bands (ev):

   -45.4216 -22.1996 -22.1003 -22.0723 -22.0506  -6.6114  -5.9377  -5.7709
    -4.3115  -3.9830  -3.8013   5.7696   6.0942   6.4607   6.7562   6.9289
     7.5376   9.1281   9.2312   9.7379

          k = 0.2018 0.3027-0.5046 (  3930 PWs)   bands (ev):

   -45.4215 -22.1990 -22.0955 -22.0680 -22.0650  -6.5922  -5.8996  -5.7616
    -4.3442  -3.8853  -3.8798   5.6936   5.9261   6.4238   6.7234   6.8882
     7.5607   9.1443   9.2004   9.7664

          k = 0.2018 0.4037 0.4037 (  3940 PWs)   bands (ev):

   -45.4213 -22.1743 -22.1169 -22.0796 -22.0651  -6.3952  -5.9743  -5.7802
    -4.3097  -3.9904  -3.8636   5.6851   5.8865   6.0529   6.7408   6.8288
     7.4534   9.1752   9.2570   9.9780

          k = 0.2018 0.4037-0.5046 (  3942 PWs)   bands (ev):

   -45.4212 -22.1640 -22.1165 -22.0934 -22.0670  -6.3037  -5.9547  -5.8291
    -4.3092  -3.9466  -3.9275   5.6403   5.7173   5.9935   6.7438   6.7857
     7.4420   9.2220   9.2383  10.0528

          k = 0.2018-0.5046-0.5046 (  3940 PWs)   bands (ev):

   -45.4210 -22.1303 -22.1245 -22.1245 -22.0665  -6.0764  -5.9772  -5.9772
    -4.2788  -3.9613  -3.9613   5.5630   5.6434   5.8716   6.7539   6.7539
     7.4121   9.2549   9.2549  10.1448

          k = 0.3027 0.3027 0.3027 (  3947 PWs)   bands (ev):

   -45.4216 -22.1893 -22.0953 -22.0953 -22.0461  -6.5169  -5.8444  -5.8444
    -4.2239  -4.2239  -3.8017   5.8566   6.5232   6.5232   6.7777   6.7777
     6.7927   9.3933   9.3933   9.7370

          k = 0.3027 0.3027 0.4037 (  3939 PWs)   bands (ev):

   -45.4212 -22.1783 -22.1020 -22.0941 -22.0645  -6.3850  -5.8530  -5.7239
    -4.3758  -4.1371  -3.8938   5.7841   6.1372   6.4610   6.5230   6.6043
     6.8905   9.4266   9.5530   9.8343

          k = 0.3027 0.3027-0.5046 (  3918 PWs)   bands (ev):

   -45.4211 -22.1764 -22.0945 -22.0936 -22.0791  -6.3415  -5.8494  -5.6703
    -4.4415  -4.0491  -3.9806   5.6894   6.0267   6.3801   6.5082   6.5611
     6.9336   9.4342   9.6027   9.8618

          k = 0.3027 0.4037 0.4037 (  3948 PWs)   bands (ev):

   -45.4209 -22.1576 -22.1153 -22.0967 -22.0821  -6.1667  -5.8156  -5.6834
    -4.4166  -4.2145  -4.0199   5.7446   6.0606   6.0823   6.4636   6.5826
     6.6776   9.6055   9.6661  10.0095

          k = 0.3027 0.4037-0.5046 (  3942 PWs)   bands (ev):

   -45.4207 -22.1499 -22.1150 -22.0988 -22.0929  -6.0634  -5.8161  -5.6706
    -4.4529  -4.1692  -4.1209   5.6441   6.0004   6.0032   6.4996   6.5000
     6.6849   9.6483   9.7088  10.0814

          k = 0.3027-0.5046-0.5046 (  3960 PWs)   bands (ev):

   -45.4206 -22.1231 -22.1229 -22.1229 -22.0925  -5.8255  -5.8060  -5.8060
    -4.4209  -4.2079  -4.2079   5.5658   5.8776   5.9688   6.5269   6.5269
     6.5943   9.7269   9.7269  10.1740

          k = 0.4037 0.4037 0.4037 (  3948 PWs)   bands (ev):

   -45.4205 -22.1406 -22.1140 -22.1140 -22.0957  -5.9403  -5.6476  -5.6476
    -4.4346  -4.4346  -4.1981   5.7029   6.0677   6.0677   6.2225   6.4259
     6.4259   9.9096   9.9096  10.0727

          k = 0.4037 0.4037-0.5046 (  3926 PWs)   bands (ev):

   -45.4204 -22.1343 -22.1139 -22.1135 -22.1073  -5.8103  -5.6800  -5.5654
    -4.5366  -4.3712  -4.3297   5.5971   5.9805   6.0708   6.2052   6.3723
     6.4416   9.9620  10.0180  10.1289

          k = 0.4037-0.5046-0.5046 (  3932 PWs)   bands (ev):

   -45.4203 -22.1216 -22.1216 -22.1173 -22.1132  -5.6193  -5.6193  -5.6097
    -4.5313  -4.4545  -4.4545   5.5186   5.8825   6.0380   6.2321   6.3820
     6.3820  10.0774  10.0774  10.1980

          k =-0.5046-0.5046-0.5046 (  3912 PWs)   bands (ev):

   -45.4201 -22.1211 -22.1211 -22.1211 -22.1151  -5.5239  -5.5239  -5.5239
    -4.5725  -4.5725  -4.5725   5.4505   5.8844   5.8844   6.3328   6.3328
     6.3328  10.2073  10.2073  10.2073

     highest occupied level (ev):    10.2073

!    total energy              =    -287.09331173 Ry
     estimated scf accuracy    <          1.6E-09 Ry

     The total energy is the sum of the following terms:
     one-electron contribution =     -73.47460582 Ry
     hartree contribution      =      59.48199481 Ry
     xc contribution           =     -57.97702441 Ry
     ewald contribution        =    -215.12367631 Ry

     convergence has been achieved in   3 iterations

     negative rho (up, down):  6.647E-02 0.000E+00

     Forces acting on atoms (cartesian axes, Ry/au):

     atom    1 type  1   force =     0.00000000    0.00000000    0.00000000
     atom    2 type  2   force =     0.00000000   -0.00000000    0.00000000
     atom    3 type  3   force =     0.00000000    0.00000000    0.00000000
     atom    4 type  3   force =     0.00000000   -0.00000000    0.00000000
     atom    5 type  3   force =     0.00000000    0.00000000    0.00000000

     Total force =     0.000000     Total SCF correction =     0.000000


     Computing stress (Cartesian axis) and pressure


     negative rho (up, down):  6.647E-02 0.000E+00
          total   stress  (Ry/bohr**3)                   (kbar)     P=        0.16
   0.00000108   0.00000000   0.00000000            0.16        0.00        0.00
   0.00000000   0.00000108   0.00000000            0.00        0.16        0.00
   0.00000000   0.00000000   0.00000108            0.00        0.00        0.16

     Energy error            =      1.4E-06 Ry
     Gradient error          =      2.1E-30 Ry/Bohr
     Cell gradient error     =      1.6E-01 kbar

     bfgs converged in   3 scf cycles and   2 bfgs steps
     (criteria: energy <  1.0E-04 Ry, force <  1.0E-03 Ry/Bohr, cell <  5.0E-01 kbar)

     End of BFGS Geometry Optimization

     Final enthalpy           =    -287.0933117270 Ry

     File ./out/SrTiO3.bfgs deleted, as requested
Begin final coordinates
     new unit-cell volume =    387.35891 a.u.^3 (    57.40067 Ang^3 )
     density =      5.30799 g/cm^3

CELL_PARAMETERS (angstrom)
   3.857497460   0.000000000   0.000000000
   0.000000000   3.857497460   0.000000000
   0.000000000   0.000000000   3.857497460

ATOMIC_POSITIONS (crystal)
Sr               0.0000000000        0.0000000000       -0.0000000000
Ti               0.5000000000        0.5000000000        0.5000000000
O                0.5000000000        0.5000000000       -0.0000000000
O                0.5000000000        0.0000000000        0.5000000000
O                0.0000000000        0.5000000000        0.5000000000
End final coordinates



     Writing config-only to output data dir ./out/SrTiO3.save/ :
     XML data file

     Final scf calculation at the relaxed structure.
     The G-vectors are recalculated for the final unit cell
     Results may differ from those at the preceding step.
 
     Parallelization info
     --------------------
     sticks:   dense  smooth     PW     G-vecs:    dense   smooth      PW
     Min         741     296     87                30351     7660    1235
     Max         742     297     88                30354     7663    1238
     Sum        2965    1185    349               121409    30647    4945
 
     Using Slab Decomposition
 


     bravais-lattice index     =            0
     lattice parameter (alat)  =       7.3562  a.u.
     unit-cell volume          =     387.3589 (a.u.)^3
     number of atoms/cell      =            5
     number of atomic types    =            3
     number of electrons       =        40.00
     number of Kohn-Sham states=           20
     kinetic-energy cutoff     =      70.0000  Ry
     charge density cutoff     =     700.0000  Ry
     scf convergence threshold =      1.0E-08
     mixing beta               =       0.7000
     number of iterations used =            8  plain     mixing
     press convergence thresh. =      5.0E-01
     Exchange-correlation= SLA  PZ   NOGX NOGC
                           (   1   1   0   0   0   0   0)

     celldm(1)=   7.356216  celldm(2)=   0.000000  celldm(3)=   0.000000
     celldm(4)=   0.000000  celldm(5)=   0.000000  celldm(6)=   0.000000

     crystal axes: (cart. coord. in units of alat)
               a(1) = (   0.990946   0.000000   0.000000 )  
               a(2) = (   0.000000   0.990946   0.000000 )  
               a(3) = (   0.000000   0.000000   0.990946 )  

     reciprocal axes: (cart. coord. in units 2 pi/alat)
               b(1) = (  1.009137  0.000000  0.000000 )  
               b(2) = (  0.000000  1.009137  0.000000 )  
               b(3) = (  0.000000  0.000000  1.009137 )  


     PseudoPot. # 1 for Sr read from file:
     /home/m0049/m004905/PSPOT/sr_lda_v1.uspp.F.UPF
     MD5 check sum: 66278998e77e07bc7d2e958ca3634663
     Pseudo is Ultrasoft + core correction, Zval = 10.0
     Generated by new atomic code, or converted to UPF format
     Using radial grid of  883 points,  6 beta functions with: 
                l(1) =   0
                l(2) =   0
                l(3) =   1
                l(4) =   1
                l(5) =   2
                l(6) =   2
     Q(r) pseudized with  6 coefficients,  rinner =    1.400   1.400   1.400
                                                       1.400   1.400

     PseudoPot. # 2 for Ti read from file:
     /home/m0049/m004905/PSPOT/ti_lda_v1.4.uspp.F.UPF
     MD5 check sum: 0d9f225c038fe889ca2a701dcc8d72cb
     Pseudo is Ultrasoft + core correction, Zval = 12.0
     Generated by new atomic code, or converted to UPF format
     Using radial grid of  851 points,  6 beta functions with: 
                l(1) =   0
                l(2) =   0
                l(3) =   1
                l(4) =   1
                l(5) =   2
                l(6) =   2
     Q(r) pseudized with  6 coefficients,  rinner =    1.000   1.000   1.000
                                                       1.000   1.000

     PseudoPot. # 3 for O  read from file:
     /home/m0049/m004905/PSPOT/o_lda_v1.2.uspp.F.UPF
     MD5 check sum: 194b818514d2a7dbb603bb78519a4f40
     Pseudo is Ultrasoft + core correction, Zval =  6.0
     Generated by new atomic code, or converted to UPF format
     Using radial grid of  737 points,  5 beta functions with: 
                l(1) =   0
                l(2) =   0
                l(3) =   1
                l(4) =   1
                l(5) =   2
     Q(r) pseudized with  8 coefficients,  rinner =    0.900   0.900   0.900
                                                       0.900   0.900

     atomic species   valence    mass     pseudopotential
     Sr               10.00    87.62000     Sr( 1.00)
     Ti               12.00    47.86700     Ti( 1.00)
     O                 6.00    15.99900     O ( 1.00)

     48 Sym. Ops., with inversion, found



   Cartesian axes

     site n.     atom                  positions (alat units)
         1        Sr     tau(   1) = (   0.0000000   0.0000000  -0.0000000  )
         2        Ti     tau(   2) = (   0.4954730   0.4954730   0.4954730  )
         3        O      tau(   3) = (   0.4954730   0.4954730  -0.0000000  )
         4        O      tau(   4) = (   0.4954730   0.0000000   0.4954730  )
         5        O      tau(   5) = (   0.0000000   0.4954730   0.4954730  )

     number of k points=    56
                       cart. coord. in units 2pi/alat
        k(    1) = (   0.0000000   0.0000000   0.0000000), wk =   0.0020000
        k(    2) = (   0.0000000   0.0000000   0.1009137), wk =   0.0120000
        k(    3) = (   0.0000000   0.0000000   0.2018273), wk =   0.0120000
        k(    4) = (   0.0000000   0.0000000   0.3027410), wk =   0.0120000
        k(    5) = (   0.0000000   0.0000000   0.4036547), wk =   0.0120000
        k(    6) = (   0.0000000   0.0000000  -0.5045683), wk =   0.0060000
        k(    7) = (   0.0000000   0.1009137   0.1009137), wk =   0.0240000
        k(    8) = (   0.0000000   0.1009137   0.2018273), wk =   0.0480000
        k(    9) = (   0.0000000   0.1009137   0.3027410), wk =   0.0480000
        k(   10) = (   0.0000000   0.1009137   0.4036547), wk =   0.0480000
        k(   11) = (   0.0000000   0.1009137  -0.5045683), wk =   0.0240000
        k(   12) = (   0.0000000   0.2018273   0.2018273), wk =   0.0240000
        k(   13) = (   0.0000000   0.2018273   0.3027410), wk =   0.0480000
        k(   14) = (   0.0000000   0.2018273   0.4036547), wk =   0.0480000
        k(   15) = (   0.0000000   0.2018273  -0.5045683), wk =   0.0240000
        k(   16) = (   0.0000000   0.3027410   0.3027410), wk =   0.0240000
        k(   17) = (   0.0000000   0.3027410   0.4036547), wk =   0.0480000
        k(   18) = (   0.0000000   0.3027410  -0.5045683), wk =   0.0240000
        k(   19) = (   0.0000000   0.4036547   0.4036547), wk =   0.0240000
        k(   20) = (   0.0000000   0.4036547  -0.5045683), wk =   0.0240000
        k(   21) = (   0.0000000  -0.5045683  -0.5045683), wk =   0.0060000
        k(   22) = (   0.1009137   0.1009137   0.1009137), wk =   0.0160000
        k(   23) = (   0.1009137   0.1009137   0.2018273), wk =   0.0480000
        k(   24) = (   0.1009137   0.1009137   0.3027410), wk =   0.0480000
        k(   25) = (   0.1009137   0.1009137   0.4036547), wk =   0.0480000
        k(   26) = (   0.1009137   0.1009137  -0.5045683), wk =   0.0240000
        k(   27) = (   0.1009137   0.2018273   0.2018273), wk =   0.0480000
        k(   28) = (   0.1009137   0.2018273   0.3027410), wk =   0.0960000
        k(   29) = (   0.1009137   0.2018273   0.4036547), wk =   0.0960000
        k(   30) = (   0.1009137   0.2018273  -0.5045683), wk =   0.0480000
        k(   31) = (   0.1009137   0.3027410   0.3027410), wk =   0.0480000
        k(   32) = (   0.1009137   0.3027410   0.4036547), wk =   0.0960000
        k(   33) = (   0.1009137   0.3027410  -0.5045683), wk =   0.0480000
        k(   34) = (   0.1009137   0.4036547   0.4036547), wk =   0.0480000
        k(   35) = (   0.1009137   0.4036547  -0.5045683), wk =   0.0480000
        k(   36) = (   0.1009137  -0.5045683  -0.5045683), wk =   0.0120000
        k(   37) = (   0.2018273   0.2018273   0.2018273), wk =   0.0160000
        k(   38) = (   0.2018273   0.2018273   0.3027410), wk =   0.0480000
        k(   39) = (   0.2018273   0.2018273   0.4036547), wk =   0.0480000
        k(   40) = (   0.2018273   0.2018273  -0.5045683), wk =   0.0240000
        k(   41) = (   0.2018273   0.3027410   0.3027410), wk =   0.0480000
        k(   42) = (   0.2018273   0.3027410   0.4036547), wk =   0.0960000
        k(   43) = (   0.2018273   0.3027410  -0.5045683), wk =   0.0480000
        k(   44) = (   0.2018273   0.4036547   0.4036547), wk =   0.0480000
        k(   45) = (   0.2018273   0.4036547  -0.5045683), wk =   0.0480000
        k(   46) = (   0.2018273  -0.5045683  -0.5045683), wk =   0.0120000
        k(   47) = (   0.3027410   0.3027410   0.3027410), wk =   0.0160000
        k(   48) = (   0.3027410   0.3027410   0.4036547), wk =   0.0480000
        k(   49) = (   0.3027410   0.3027410  -0.5045683), wk =   0.0240000
        k(   50) = (   0.3027410   0.4036547   0.4036547), wk =   0.0480000
        k(   51) = (   0.3027410   0.4036547  -0.5045683), wk =   0.0480000
        k(   52) = (   0.3027410  -0.5045683  -0.5045683), wk =   0.0120000
        k(   53) = (   0.4036547   0.4036547   0.4036547), wk =   0.0160000
        k(   54) = (   0.4036547   0.4036547  -0.5045683), wk =   0.0240000
        k(   55) = (   0.4036547  -0.5045683  -0.5045683), wk =   0.0120000
        k(   56) = (  -0.5045683  -0.5045683  -0.5045683), wk =   0.0020000

     Dense  grid:   121409 G-vectors     FFT dimensions: (  64,  64,  64)

     Smooth grid:    30647 G-vectors     FFT dimensions: (  40,  40,  40)

     Estimated max dynamical RAM per process >      39.38 MB

     Estimated total dynamical RAM >       2.53 GB

     Check: negative core charge=   -0.000002

     Initial potential from superposition of free atoms

     starting charge      38.9729, renormalised to      40.0000

     negative rho (up, down):  6.581E-02 0.000E+00
     Starting wfcs are   35 randomized atomic wfcs

     total cpu time spent up to now is       17.3 secs

     Self-consistent Calculation

     iteration #  1     ecut=    70.00 Ry     beta= 0.70
     Davidson diagonalization with overlap
     ethr =  1.00E-06,  avg # of iterations =  7.9

     negative rho (up, down):  6.393E-02 0.000E+00

     total cpu time spent up to now is       17.5 secs

     total energy              =    -286.67840440 Ry
[...]
     estimated scf accuracy    <       0.00004094 Ry

     iteration # 10     ecut=    70.00 Ry     beta= 0.70
     Davidson diagonalization with overlap
     ethr =  1.02E-07,  avg # of iterations =  3.6

     negative rho (up, down):  6.646E-02 0.000E+00

     total cpu time spent up to now is       18.8 secs

     total energy              =    -287.09327290 Ry
     estimated scf accuracy    <       0.00000015 Ry

     iteration # 11     ecut=    70.00 Ry     beta= 0.70
     Davidson diagonalization with overlap
     ethr =  3.67E-10,  avg # of iterations =  6.0

     negative rho (up, down):  6.646E-02 0.000E+00

     total cpu time spent up to now is       19.0 secs

     total energy              =    -287.09327303 Ry
     estimated scf accuracy    <       0.00000302 Ry

     iteration # 12     ecut=    70.00 Ry     beta= 0.70
     Davidson diagonalization with overlap
     ethr =  3.67E-10,  avg # of iterations =  4.7

     negative rho (up, down):  6.646E-02 0.000E+00

     total cpu time spent up to now is       19.2 secs

     total energy              =    -287.09327294 Ry
     estimated scf accuracy    <       0.00000075 Ry

     iteration # 13     ecut=    70.00 Ry     beta= 0.70
     Davidson diagonalization with overlap
     ethr =  3.67E-10,  avg # of iterations =  4.1

     negative rho (up, down):  6.646E-02 0.000E+00

     total cpu time spent up to now is       19.3 secs

     total energy              =    -287.09327299 Ry
     estimated scf accuracy    <       0.00000006 Ry

     iteration # 14     ecut=    70.00 Ry     beta= 0.70
     Davidson diagonalization with overlap
     ethr =  1.51E-10,  avg # of iterations =  3.1

     negative rho (up, down):  6.646E-02 0.000E+00

     total cpu time spent up to now is       19.4 secs

     End of self-consistent calculation

          k = 0.0000 0.0000 0.0000 (  3887 PWs)   bands (ev):

   -45.4243 -22.1924 -22.0452 -22.0452 -22.0452  -7.0333  -5.9715  -5.9715
    -4.2431  -4.2431  -4.2431   7.3452   7.3452   7.3452   8.9500   8.9500
     8.9500   9.8801   9.8801   9.8801

          k = 0.0000 0.0000 0.1009 (  3831 PWs)   bands (ev):

   -45.4242 -22.2022 -22.0448 -22.0448 -22.0405  -7.0397  -5.9785  -5.9668
    -4.2376  -4.2376  -4.1575   7.2032   7.3333   7.3333   8.8042   8.8042
     8.8486   9.5441   9.8064   9.8064

          k = 0.0000 0.0000 0.2018 (  3823 PWs)   bands (ev):

   -45.4238 -22.2266 -22.0438 -22.0438 -22.0295  -7.0886  -5.9547  -5.9347
    -4.2231  -4.2231  -3.9582   6.8230   7.3035   7.3035   8.4604   8.4604
     8.6027   8.8382   9.6799   9.6799

          k = 0.0000 0.0000 0.3027 (  3836 PWs)   bands (ev):

   -45.4234 -22.2552 -22.0425 -22.0425 -22.0172  -7.1908  -5.9397  -5.7927
    -4.2051  -4.2051  -3.7467   6.3290   7.2725   7.2725   8.0934   8.0934
     8.1784   8.3298   9.5742   9.5742

          k = 0.0000 0.0000 0.4037 (  3860 PWs)   bands (ev):

   -45.4230 -22.2774 -22.0415 -22.0415 -22.0079  -7.2884  -5.9274  -5.6321
    -4.1904  -4.1904  -3.5960   5.9084   7.2583   7.2583   7.7545   7.8221
     7.8221   8.1285   9.5059   9.5059

          k = 0.0000 0.0000-0.5046 (  3804 PWs)   bands (ev):

   -45.4229 -22.2858 -22.0411 -22.0411 -22.0044  -7.3270  -5.9227  -5.5626
    -4.1847  -4.1847  -3.5424   5.7433   7.2586   7.2586   7.6115   7.7192
     7.7192   8.0554   9.4824   9.4824

          k = 0.0000 0.1009 0.1009 (  3839 PWs)   bands (ev):

   -45.4241 -22.2086 -22.0530 -22.0444 -22.0308  -7.0369  -5.9907  -5.9624
    -4.2320  -4.1920  -4.1198   7.0921   7.2908   7.3217   8.4918   8.6787
     8.9553   9.4057   9.6055   9.7166

          k = 0.0000 0.1009 0.2018 (  3837 PWs)   bands (ev):

   -45.4237 -22.2267 -22.0572 -22.0434 -22.0211  -7.0623  -5.9816  -5.9313
    -4.2172  -4.1650  -3.9513   6.7555   7.2126   7.2928   8.0503   8.3689
     8.7563   8.9715   9.4550   9.5623

          k = 0.0000 0.1009 0.3027 (  3832 PWs)   bands (ev):

   -45.4233 -22.2504 -22.0553 -22.0422 -22.0146  -7.1428  -5.9395  -5.8320
    -4.1987  -4.1476  -3.7584   6.2992   7.1122   7.2628   7.6003   8.0241
     8.2902   8.7776   9.3405   9.4390

          k = 0.0000 0.1009 0.4037 (  3837 PWs)   bands (ev):

   -45.4229 -22.2701 -22.0513 -22.0412 -22.0111  -7.2288  -5.9150  -5.6935
    -4.1836  -4.1330  -3.6203   5.8975   7.0067   7.2500   7.2909   7.7624
     8.0188   8.6315   9.2629   9.3627

          k = 0.0000 0.1009-0.5046 (  3838 PWs)   bands (ev):

   -45.4228 -22.2777 -22.0494 -22.0408 -22.0100  -7.2641  -5.9065  -5.6315
    -4.1778  -4.1269  -3.5713   5.7369   6.9517   7.1967   7.2516   7.6614
     7.9326   8.5768   9.2354   9.3369

          k = 0.0000 0.2018 0.2018 (  3820 PWs)   bands (ev):

   -45.4234 -22.2293 -22.0733 -22.0424 -22.0156  -7.0189  -6.0361  -5.8891
    -4.2015  -4.0611  -3.9035   6.5319   7.0188   7.2656   7.5359   8.1303
     8.6537   8.8973   9.3355   9.3459

          k = 0.0000 0.2018 0.3027 (  3833 PWs)   bands (ev):

   -45.4229 -22.2382 -22.0793 -22.0412 -22.0169  -7.0224  -6.0125  -5.8359
    -4.1819  -4.0180  -3.7830   6.1886   6.7477   7.1062   7.2368   7.8423
     8.3462   8.8510   9.1711   9.3324

          k = 0.0000 0.2018 0.4037 (  3847 PWs)   bands (ev):

   -45.4226 -22.2495 -22.0750 -22.0402 -22.0228  -7.0648  -5.9275  -5.7986
    -4.1659  -4.0017  -3.6776   5.8613   6.4050   6.9577   7.2260   7.6094
     8.1734   8.8252   9.0673   9.2781

          k = 0.0000 0.2018-0.5046 (  3828 PWs)   bands (ev):

   -45.4224 -22.2546 -22.0708 -22.0398 -22.0268  -7.0874  -5.8778  -5.7912
    -4.1597  -3.9950  -3.6388   5.7200   6.2733   6.9255   7.2307   7.5144
     8.1202   8.8159   9.0333   9.2477

          k = 0.0000 0.3027 0.3027 (  3828 PWs)   bands (ev):

   -45.4225 -22.2254 -22.0984 -22.0400 -22.0278  -6.8974  -6.0840  -5.8088
    -4.1609  -3.9019  -3.7841   5.9526   6.5089   6.5214   7.2064   7.6162
     8.3215   8.6989   8.9382   9.5993

          k = 0.0000 0.3027 0.4037 (  3825 PWs)   bands (ev):

   -45.4221 -22.2198 -22.1016 -22.0439 -22.0390  -6.8385  -6.0449  -5.8294
    -4.1437  -3.8643  -3.7293   5.7325   5.9882   6.4351   7.1924   7.4245
     8.3238   8.6441   8.7962   9.7175

          k = 0.0000 0.3027-0.5046 (  3822 PWs)   bands (ev):

   -45.4220 -22.2196 -22.0971 -22.0538 -22.0386  -6.8301  -5.9617  -5.8902
    -4.1371  -3.8571  -3.6994   5.6927   5.7377   6.4173   7.1988   7.3400
     8.3432   8.6155   8.7497   9.7461

          k = 0.0000 0.4037 0.4037 (  3822 PWs)   bands (ev):

   -45.4218 -22.1902 -22.1185 -22.0710 -22.0380  -6.6266  -6.1178  -5.9010
    -4.1256  -3.7726  -3.7423   5.4891   5.7831   6.0449   7.1666   7.2728
     8.4493   8.6105   8.6245   9.9555

          k = 0.0000 0.4037-0.5046 (  3834 PWs)   bands (ev):

   -45.4216 -22.1774 -22.1182 -22.0896 -22.0377  -6.5412  -6.0852  -5.9944
    -4.1187  -3.7582  -3.7220   5.3957   5.6254   5.9828   7.1672   7.2043
     8.5225   8.5674   8.5861  10.0263

          k = 0.0000-0.5046-0.5046 (  3836 PWs)   bands (ev):

   -45.4215 -22.1383 -22.1262 -22.1262 -22.0373  -6.3396  -6.1298  -6.1298
    -4.1116  -3.7227  -3.7227   5.2781   5.5454   5.8649   7.1535   7.1535
     8.5063   8.5908   8.5908  10.1126

          k = 0.1009 0.1009 0.1009 (  3833 PWs)   bands (ev):

   -45.4239 -22.2128 -22.0526 -22.0526 -22.0233  -7.0269  -5.9813  -5.9813
    -4.1946  -4.1946  -4.0751   6.9778   7.2821   7.2821   8.3992   8.3992
     9.0577   9.2153   9.5608   9.5608

          k = 0.1009 0.1009 0.2018 (  3829 PWs)   bands (ev):

   -45.4236 -22.2260 -22.0597 -22.0515 -22.0159  -7.0330  -5.9739  -5.9562
    -4.2016  -4.1418  -3.9327   6.6745   7.1648   7.2592   7.9810   8.0730
     8.8037   9.0340   9.3396   9.4512

          k = 0.1009 0.1009 0.3027 (  3840 PWs)   bands (ev):

   -45.4231 -22.2456 -22.0586 -22.0503 -22.0131  -7.0940  -5.9244  -5.8730
    -4.2111  -4.0949  -3.7659   6.2645   6.9991   7.2326   7.5807   7.6201
     8.5693   8.8784   9.1564   9.3422

          k = 0.1009 0.1009 0.4037 (  3839 PWs)   bands (ev):

   -45.4228 -22.2630 -22.0526 -22.0492 -22.0140  -7.1691  -5.8980  -5.7401
    -4.2195  -4.0575  -3.6457   5.8867   6.8563   7.2186   7.2274   7.3779
     8.4868   8.7197   9.0214   9.2710

          k = 0.1009 0.1009-0.5046 (  3828 PWs)   bands (ev):

   -45.4226 -22.2699 -22.0492 -22.0488 -22.0153  -7.2011  -5.8877  -5.6807
    -4.2229  -4.0427  -3.6032   5.7312   6.8017   7.1091   7.2290   7.2787
     8.4691   8.6559   8.9693   9.2464

          k = 0.1009 0.2018 0.2018 (  3828 PWs)   bands (ev):

   -45.4232 -22.2268 -22.0729 -22.0533 -22.0126  -6.9801  -6.0159  -5.9162
    -4.1912  -4.0828  -3.8667   6.4495   7.0161   7.1974   7.5403   7.8767
     8.4704   9.0931   9.2621   9.3121

          k = 0.1009 0.2018 0.3027 (  3827 PWs)   bands (ev):

   -45.4228 -22.2333 -22.0792 -22.0519 -22.0162  -6.9709  -5.9890  -5.8579
    -4.2052  -4.0147  -3.7743   6.1470   6.7302   7.1113   7.1596   7.5628
     8.3399   8.9451   9.1270   9.3247

          k = 0.1009 0.2018 0.4037 (  3835 PWs)   bands (ev):

   -45.4224 -22.2431 -22.0748 -22.0499 -22.0249  -7.0046  -5.9028  -5.8134
    -4.2260  -3.9569  -3.7039   5.8515   6.3967   6.9318   7.1330   7.3107
     8.4014   8.7414   9.0599   9.2779

          k = 0.1009 0.2018-0.5046 (  3826 PWs)   bands (ev):

   -45.4223 -22.2478 -22.0704 -22.0480 -22.0311  -7.0244  -5.8517  -5.8032
    -4.2350  -3.9336  -3.6789   5.7167   6.2743   6.8880   7.1301   7.2134
     8.5220   8.5753   9.0374   9.2507

          k = 0.1009 0.3027 0.3027 (  3838 PWs)   bands (ev):

   -45.4223 -22.2203 -22.0979 -22.0512 -22.0273  -6.8416  -6.0535  -5.8113
    -4.1987  -3.9444  -3.7644   5.9368   6.5111   6.5554   7.0777   7.4115
     8.1800   8.9137   8.9155   9.5986

          k = 0.1009 0.3027 0.4037 (  3821 PWs)   bands (ev):

   -45.4220 -22.2145 -22.1012 -22.0517 -22.0420  -6.7776  -6.0152  -5.8124
    -4.2051  -3.8804  -3.7517   5.7464   6.0176   6.4406   7.0534   7.2240
     8.2305   8.7437   8.8877   9.7193

          k = 0.1009 0.3027-0.5046 (  3822 PWs)   bands (ev):

   -45.4219 -22.2142 -22.0967 -22.0566 -22.0468  -6.7672  -5.9441  -5.8538
    -4.2095  -3.8487  -3.7506   5.6929   5.7934   6.4195   7.0886   7.1073
     8.2892   8.6620   8.8731   9.7488

          k = 0.1009 0.4037 0.4037 (  3833 PWs)   bands (ev):

   -45.4216 -22.1860 -22.1181 -22.0729 -22.0458  -6.5643  -6.0808  -5.8676
    -4.1832  -3.8303  -3.7697   5.5552   5.7998   6.0470   7.0188   7.1152
     8.2036   8.7518   8.8254   9.9609

          k = 0.1009 0.4037-0.5046 (  3842 PWs)   bands (ev):

   -45.4215 -22.1738 -22.1177 -22.0905 -22.0458  -6.4775  -6.0511  -5.9506
    -4.1746  -3.8005  -3.7821   5.4849   5.6298   5.9856   7.0377   7.0386
     8.2039   8.7597   8.8109  10.0332

          k = 0.1009-0.5046-0.5046 (  3848 PWs)   bands (ev):

   -45.4214 -22.1361 -22.1257 -22.1257 -22.0454  -6.2685  -6.0906  -6.0906
    -4.1587  -3.7859  -3.7859   5.3793   5.5509   5.8668   7.0142   7.0142
     8.1775   8.8024   8.8024  10.1214

          k = 0.2018 0.2018 0.2018 (  3818 PWs)   bands (ev):

   -45.4229 -22.2218 -22.0718 -22.0718 -22.0129  -6.8957  -5.9606  -5.9606
    -4.1422  -4.1422  -3.7974   6.2559   7.0038   7.0038   7.4840   7.4840
     7.9740   9.2133   9.2133   9.3506

          k = 0.2018 0.2018 0.3027 (  3829 PWs)   bands (ev):

   -45.4224 -22.2206 -22.0820 -22.0704 -22.0207  -6.8397  -5.9488  -5.8864
    -4.2219  -4.0488  -3.7531   6.0372   6.6686   6.9528   7.1060   7.2027
     7.8320   9.1443   9.1832   9.4098

          k = 0.2018 0.2018 0.4037 (  3820 PWs)   bands (ev):

   -45.4221 -22.2252 -22.0776 -22.0693 -22.0341  -6.8391  -5.8800  -5.8202
    -4.2928  -3.9403  -3.7552   5.8234   6.3019   6.8378   6.8474   7.1105
     7.8910   9.0895   9.1282   9.3794

          k = 0.2018 0.2018-0.5046 (  3830 PWs)   bands (ev):

   -45.4219 -22.2283 -22.0697 -22.0689 -22.0439  -6.8481  -5.8411  -5.7932
    -4.3217  -3.8769  -3.7788   5.7084   6.1812   6.7697   6.7818   7.0969
     7.9255   9.0705   9.0974   9.3547

          k = 0.2018 0.3027 0.3027 (  3839 PWs)   bands (ev):

   -45.4220 -22.2065 -22.0967 -22.0736 -22.0329  -6.6949  -5.9674  -5.8236
    -4.2446  -4.0619  -3.7556   5.8987   6.5167   6.6476   6.8223   7.0648
     7.5279   9.1343   9.2421   9.6251

          k = 0.2018 0.3027 0.4037 (  3833 PWs)   bands (ev):

   -45.4216 -22.1996 -22.1003 -22.0722 -22.0505  -6.6115  -5.9378  -5.7710
    -4.3115  -3.9829  -3.8013   5.7696   6.0942   6.4607   6.7562   6.9289
     7.5376   9.1281   9.2312   9.7379

          k = 0.2018 0.3027-0.5046 (  3836 PWs)   bands (ev):

   -45.4215 -22.1990 -22.0955 -22.0680 -22.0650  -6.5922  -5.8996  -5.7617
    -4.3442  -3.8853  -3.8797   5.6936   5.9261   6.4238   6.7234   6.8882
     7.5606   9.1442   9.2004   9.7664

          k = 0.2018 0.4037 0.4037 (  3845 PWs)   bands (ev):

   -45.4213 -22.1743 -22.1168 -22.0795 -22.0651  -6.3952  -5.9743  -5.7802
    -4.3096  -3.9904  -3.8636   5.6851   5.8864   6.0529   6.7408   6.8288
     7.4534   9.1752   9.2569   9.9779

          k = 0.2018 0.4037-0.5046 (  3826 PWs)   bands (ev):

   -45.4212 -22.1640 -22.1165 -22.0933 -22.0669  -6.3037  -5.9547  -5.8291
    -4.3092  -3.9466  -3.9275   5.6403   5.7173   5.9935   6.7438   6.7857
     7.4420   9.2220   9.2382  10.0527

          k = 0.2018-0.5046-0.5046 (  3832 PWs)   bands (ev):

   -45.4210 -22.1303 -22.1245 -22.1245 -22.0665  -6.0764  -5.9772  -5.9772
    -4.2788  -3.9613  -3.9613   5.5630   5.6433   5.8716   6.7539   6.7539
     7.4121   9.2548   9.2548  10.1448

          k = 0.3027 0.3027 0.3027 (  3815 PWs)   bands (ev):

   -45.4216 -22.1893 -22.0952 -22.0952 -22.0460  -6.5169  -5.8444  -5.8444
    -4.2239  -4.2239  -3.8017   5.8565   6.5232   6.5232   6.7777   6.7777
     6.7926   9.3933   9.3933   9.7369

          k = 0.3027 0.3027 0.4037 (  3831 PWs)   bands (ev):

   -45.4212 -22.1783 -22.1019 -22.0941 -22.0644  -6.3850  -5.8530  -5.7240
    -4.3758  -4.1371  -3.8938   5.7841   6.1372   6.4610   6.5230   6.6043
     6.8904   9.4265   9.5529   9.8342

          k = 0.3027 0.3027-0.5046 (  3832 PWs)   bands (ev):

   -45.4211 -22.1764 -22.0944 -22.0936 -22.0791  -6.3415  -5.8494  -5.6703
    -4.4415  -4.0491  -3.9806   5.6894   6.0267   6.3801   6.5082   6.5611
     6.9336   9.4341   9.6027   9.8617

          k = 0.3027 0.4037 0.4037 (  3825 PWs)   bands (ev):

   -45.4209 -22.1575 -22.1152 -22.0966 -22.0821  -6.1668  -5.8156  -5.6835
    -4.4166  -4.2145  -4.0198   5.7446   6.0606   6.0823   6.4636   6.5826
     6.6776   9.6055   9.6660  10.0095

          k = 0.3027 0.4037-0.5046 (  3822 PWs)   bands (ev):

   -45.4207 -22.1498 -22.1149 -22.0988 -22.0928  -6.0634  -5.8162  -5.6707
    -4.4529  -4.1692  -4.1209   5.6441   6.0004   6.0032   6.4996   6.5000
     6.6849   9.6483   9.7087  10.0814

          k = 0.3027-0.5046-0.5046 (  3832 PWs)   bands (ev):

   -45.4206 -22.1231 -22.1229 -22.1229 -22.0924  -5.8255  -5.8060  -5.8060
    -4.4209  -4.2079  -4.2079   5.5658   5.8776   5.9687   6.5268   6.5268
     6.5943   9.7268   9.7268  10.1740

          k = 0.4037 0.4037 0.4037 (  3819 PWs)   bands (ev):

   -45.4205 -22.1405 -22.1140 -22.1140 -22.0956  -5.9404  -5.6476  -5.6476
    -4.4346  -4.4346  -4.1980   5.7028   6.0677   6.0677   6.2225   6.4258
     6.4258   9.9096   9.9096  10.0727

          k = 0.4037 0.4037-0.5046 (  3824 PWs)   bands (ev):

   -45.4204 -22.1343 -22.1138 -22.1135 -22.1073  -5.8104  -5.6800  -5.5654
    -4.5366  -4.3712  -4.3297   5.5971   5.9805   6.0708   6.2052   6.3723
     6.4416   9.9619  10.0180  10.1289

          k = 0.4037-0.5046-0.5046 (  3836 PWs)   bands (ev):

   -45.4202 -22.1216 -22.1216 -22.1173 -22.1132  -5.6193  -5.6193  -5.6098
    -4.5313  -4.4545  -4.4545   5.5186   5.8825   6.0380   6.2320   6.3820
     6.3820  10.0773  10.0773  10.1980

          k =-0.5046-0.5046-0.5046 (  3840 PWs)   bands (ev):

   -45.4201 -22.1211 -22.1211 -22.1211 -22.1151  -5.5239  -5.5239  -5.5239
    -4.5725  -4.5725  -4.5725   5.4505   5.8843   5.8843   6.3328   6.3328
     6.3328  10.2072  10.2072  10.2072

     highest occupied level (ev):    10.2072

!    total energy              =    -287.09327299 Ry
     estimated scf accuracy    <          6.9E-09 Ry

     The total energy is the sum of the following terms:
     one-electron contribution =     -73.47476551 Ry
     hartree contribution      =      59.48220091 Ry
     xc contribution           =     -57.97703209 Ry
     ewald contribution        =    -215.12367631 Ry

     convergence has been achieved in  14 iterations

     negative rho (up, down):  6.646E-02 0.000E+00

     Forces acting on atoms (cartesian axes, Ry/au):

     atom    1 type  1   force =     0.00000000    0.00000000    0.00000000
     atom    2 type  2   force =     0.00000000    0.00000000    0.00000000
     atom    3 type  3   force =     0.00000000    0.00000000    0.00000000
     atom    4 type  3   force =     0.00000000    0.00000000    0.00000000
     atom    5 type  3   force =     0.00000000    0.00000000    0.00000000

     Total force =     0.000000     Total SCF correction =     0.000000


     Computing stress (Cartesian axis) and pressure


     negative rho (up, down):  6.646E-02 0.000E+00
          total   stress  (Ry/bohr**3)                   (kbar)     P=        0.38
   0.00000256   0.00000000   0.00000000            0.38        0.00        0.00
   0.00000000   0.00000256   0.00000000            0.00        0.38        0.00
   0.00000000   0.00000000   0.00000256            0.00        0.00        0.38


     Writing all to output data dir ./out/SrTiO3.save/ :
     XML data file, charge density, pseudopotentials, collected wavefunctions
 
     init_run     :      0.60s CPU      5.79s WALL (       2 calls)
     electrons    :      4.92s CPU      7.08s WALL (       4 calls)
     update_pot   :      0.04s CPU      0.05s WALL (       2 calls)
     forces       :      0.18s CPU      0.20s WALL (       4 calls)
     stress       :      0.39s CPU      0.41s WALL (       4 calls)

     Called by init_run:
     wfcinit      :      0.08s CPU      1.32s WALL (       2 calls)
     potinit      :      0.04s CPU      0.92s WALL (       2 calls)
     hinit0       :      0.39s CPU      2.94s WALL (       2 calls)

     Called by electrons:
     c_bands      :      3.09s CPU      4.19s WALL (      37 calls)
     sum_band     :      1.01s CPU      1.40s WALL (      37 calls)
     v_of_rho     :      0.20s CPU      0.24s WALL (      40 calls)
     newd         :      0.43s CPU      0.66s WALL (      40 calls)
     mix_rho      :      0.09s CPU      0.59s WALL (      37 calls)

     Called by c_bands:
     init_us_2    :      0.14s CPU      0.15s WALL (     252 calls)
     cegterg      :      2.21s CPU      3.27s WALL (     111 calls)

     Called by *egterg:
     cdiaghg      :      0.21s CPU      1.67s WALL (     491 calls)
     h_psi        :      1.60s CPU      2.36s WALL (     506 calls)
     s_psi        :      0.10s CPU      0.11s WALL (     506 calls)
     g_psi        :      0.01s CPU      0.01s WALL (     389 calls)

     Called by h_psi:
     h_psi:calbec :      0.13s CPU      0.43s WALL (     506 calls)
     vloc_psi     :      1.35s CPU      1.78s WALL (     506 calls)
                                        0.00s GPU  (     506 calls)
     add_vuspsi   :      0.11s CPU      0.13s WALL (     506 calls)

     General routines
     calbec       :      0.23s CPU      0.54s WALL (     821 calls)
     fft          :      0.25s CPU      1.81s WALL (     267 calls)
     ffts         :      0.02s CPU      0.45s WALL (      77 calls)
     fftw         :      1.39s CPU      1.82s WALL (   15894 calls)
     interpolate  :      0.07s CPU      0.96s WALL (      40 calls)
 
     Parallel routines
 
     PWSCF        :      6.38s CPU     22.33s WALL

 
   This run was terminated on:  17:31:40  10Jul2025            

=------------------------------------------------------------------------------=
   JOB DONE.
=------------------------------------------------------------------------------=
