
     Program PWSCF v.7.1 starts on 11Jun2026 at  3:34:57 

     This program is part of the open-source Quantum ESPRESSO suite
     for quantum simulation of materials; please cite
         "P. Giannozzi et al., J. Phys.:Condens. Matter 21 395502 (2009);
         "P. Giannozzi et al., J. Phys.:Condens. Matter 29 465901 (2017);
         "P. Giannozzi et al., J. Chem. Phys. 152 154105 (2020);
          URL http://www.quantum-espresso.org", 
     in publications or presentations arising from this work. More details at
     http://www.quantum-espresso.org/quote

     Parallel version (MPI & OpenMP), running on       7 processor cores
     Number of MPI processes:                 7
     Threads/MPI process:                     1

     MPI processes distributed on     7 nodes
     223790 MiB available memory on the printing compute node when the environment starts
 
     Waiting for input...
     Reading input from standard input
Warning: card &CELL ignored
Warning: card / ignored
Warning: card &FCP ignored
Warning: card / ignored
Warning: card &RISM ignored
Warning: card / ignored

     Current dimensions of program PWSCF are:
     Max number of different atomic species (ntypx) = 10
     Max number of k-points (npk) =  40000
     Max angular momentum in pseudopotentials (lmaxx) =  4
     Message from routine setup:
     using ibrav=0 with symmetry is DISCOURAGED, use correct ibrav instead
 
     R & G space division:  proc/nbgrp/npool/nimage =       7
     Subspace diagonalization in iterative solution of the eigenvalue problem:
     a serial algorithm will be used

 
     Parallelization info
     --------------------
     sticks:   dense  smooth     PW     G-vecs:    dense   smooth      PW
     Min          84      34     12                 3835      968     188
     Max          86      35     13                 3842      975     193
     Sum         595     241     85                26857     6799    1333
 
     Using Slab Decomposition
 


     bravais-lattice index     =            0
     lattice parameter (alat)  =       4.6633  a.u.
     unit-cell volume          =     199.2999 (a.u.)^3
     number of atoms/cell      =            4
     number of atomic types    =            1
     number of electrons       =        16.00
     number of Kohn-Sham states=           12
     kinetic-energy cutoff     =      40.0000  Ry
     charge density cutoff     =     400.0000  Ry
     scf convergence threshold =      1.0E-08
     mixing beta               =       0.3000
     number of iterations used =            8  plain     mixing
     Exchange-correlation= SLA  PW   PBE  PBE
                           (   1   4   3   4   0   0   0)

     celldm(1)=   4.663315  celldm(2)=   0.000000  celldm(3)=   0.000000
     celldm(4)=   0.000000  celldm(5)=   0.000000  celldm(6)=   0.000000

     crystal axes: (cart. coord. in units of alat)
               a(1) = (   1.000000   0.000000   0.000000 )  
               a(2) = (  -0.500000   0.866025   0.000000 )  
               a(3) = (   0.000000   0.000000   2.269301 )  

     reciprocal axes: (cart. coord. in units 2 pi/alat)
               b(1) = (  1.000000  0.577350  0.000000 )  
               b(2) = (  0.000000  1.154701  0.000000 )  
               b(3) = (  0.000000  0.000000  0.440664 )  


     PseudoPot. # 1 for C  read from file:
     /home/k0750/k075000/PSPOT/c_pbe_v1.2.uspp.F.UPF
     MD5 check sum: d1aef80898a10debaa0f26306b886e00
     Pseudo is Ultrasoft + core correction, Zval =  4.0
     Generated by new atomic code, or converted to UPF format
     Using radial grid of  721 points,  4 beta functions with: 
                l(1) =   0
                l(2) =   0
                l(3) =   1
                l(4) =   1
     Q(r) pseudized with  8 coefficients,  rinner =    1.100   1.100   1.100


     atomic species   valence    mass     pseudopotential
        C              4.00    12.01100     C ( 1.00)

      8 Sym. Ops., with inversion, found ( 4 have fractional translation)



   Cartesian axes

     site n.     atom                  positions (alat units)
         1           C   tau(   1) = (   0.0000000   0.0000000   1.7019759  )
         2           C   tau(   2) = (   0.0000000   0.0000000   0.5673253  )
         3           C   tau(   3) = (  -0.0000050   0.5773532   1.7019759  )
         4           C   tau(   4) = (   0.5000050   0.2886722   0.5673253  )

     number of k points=   215  Marzari-Vanderbilt smearing, width (Ry)=  0.0100

     Number of k-points >= 100: set verbosity='high' to print them.

     Dense  grid:    26857 G-vectors     FFT dimensions: (  30,  30,  72)

     Smooth grid:     6799 G-vectors     FFT dimensions: (  20,  20,  48)

     Estimated max dynamical RAM per process >      10.69 MB

     Estimated total dynamical RAM >      74.84 MB

     Initial potential from superposition of free atoms

     starting charge      15.9998, renormalised to      16.0000
     Starting wfcs are   16 randomized atomic wfcs

     total cpu time spent up to now is        1.7 secs

     Self-consistent Calculation

     iteration #  1     ecut=    40.00 Ry     beta= 0.30
     Davidson diagonalization with overlap
     ethr =  1.00E-02,  avg # of iterations =  2.7

     total cpu time spent up to now is        2.8 secs

     total energy              =     -45.97369105 Ry
     estimated scf accuracy    <       0.33821280 Ry

     iteration #  2     ecut=    40.00 Ry     beta= 0.30
     Davidson diagonalization with overlap
     ethr =  2.11E-03,  avg # of iterations =  1.1

     total cpu time spent up to now is        3.5 secs

     total energy              =     -45.91104566 Ry
     estimated scf accuracy    <       0.12549664 Ry

     iteration #  3     ecut=    40.00 Ry     beta= 0.30
     Davidson diagonalization with overlap
     ethr =  7.84E-04,  avg # of iterations =  3.1

     total cpu time spent up to now is        4.5 secs

     total energy              =     -45.92948094 Ry
     estimated scf accuracy    <       0.00191587 Ry

     iteration #  4     ecut=    40.00 Ry     beta= 0.30
     Davidson diagonalization with overlap
     ethr =  1.20E-05,  avg # of iterations =  5.4

     total cpu time spent up to now is        5.8 secs

     total energy              =     -45.92944624 Ry
     estimated scf accuracy    <       0.00120766 Ry

     iteration #  5     ecut=    40.00 Ry     beta= 0.30
     Davidson diagonalization with overlap
     ethr =  7.55E-06,  avg # of iterations =  2.2

     total cpu time spent up to now is        6.7 secs

     total energy              =     -45.92960868 Ry
     estimated scf accuracy    <       0.00001620 Ry

     iteration #  6     ecut=    40.00 Ry     beta= 0.30
     Davidson diagonalization with overlap
     ethr =  1.01E-07,  avg # of iterations =  2.4

     total cpu time spent up to now is        7.5 secs

     total energy              =     -45.92960955 Ry
     estimated scf accuracy    <       0.00000278 Ry

     iteration #  7     ecut=    40.00 Ry     beta= 0.30
     Davidson diagonalization with overlap
     ethr =  1.74E-08,  avg # of iterations =  1.7

     total cpu time spent up to now is        8.3 secs

     total energy              =     -45.92961011 Ry
     estimated scf accuracy    <       0.00000049 Ry

     iteration #  8     ecut=    40.00 Ry     beta= 0.30
     Davidson diagonalization with overlap
     ethr =  3.03E-09,  avg # of iterations =  2.0

     total cpu time spent up to now is        9.2 secs

     total energy              =     -45.92961029 Ry
     estimated scf accuracy    <       0.00000009 Ry

     iteration #  9     ecut=    40.00 Ry     beta= 0.30
     Davidson diagonalization with overlap
     ethr =  5.76E-10,  avg # of iterations =  1.1

     total cpu time spent up to now is        9.9 secs

     End of self-consistent calculation

     Number of k-points >= 100: set verbosity='high' to print the bands.

     the Fermi energy is     9.1163 ev

!    total energy              =     -45.92961038 Ry
     estimated scf accuracy    <          3.4E-09 Ry
     smearing contrib. (-TS)   =      -0.00005335 Ry
     internal energy E=F+TS    =     -45.92955704 Ry

     The total energy is F=E-TS. E is the sum of the following terms:
     one-electron contribution =       1.43371024 Ry
     hartree contribution      =       8.57293613 Ry
     xc contribution           =     -14.59369201 Ry
     ewald contribution        =     -41.34251140 Ry

     convergence has been achieved in   9 iterations

     Forces acting on atoms (cartesian axes, Ry/au):

     atom    1 type  1   force =    -0.00002514    0.00001452    0.00000000
     atom    2 type  1   force =     0.00002514   -0.00001452    0.00000000
     atom    3 type  1   force =     0.00002529   -0.00001460    0.00000000
     atom    4 type  1   force =    -0.00002529    0.00001460    0.00000000

     Total force =     0.000058     Total SCF correction =     0.000000


     Computing stress (Cartesian axis) and pressure

          total   stress  (Ry/bohr**3)                   (kbar)     P=       52.35
  -0.00018915  -0.00000010   0.00000000          -27.83       -0.01        0.00
  -0.00000010  -0.00018927   0.00000000           -0.01      -27.84        0.00
   0.00000000   0.00000000   0.00144600            0.00        0.00      212.71


     Writing all to output data dir ./tmp/graphite_d_2p80000.save/
 
     init_run     :      0.38s CPU      0.44s WALL (       1 calls)
     electrons    :      7.63s CPU      8.20s WALL (       1 calls)
     forces       :      0.08s CPU      0.08s WALL (       1 calls)
     stress       :      0.15s CPU      0.15s WALL (       1 calls)

     Called by init_run:
     wfcinit      :      0.33s CPU      0.34s WALL (       1 calls)
     potinit      :      0.01s CPU      0.03s WALL (       1 calls)
     hinit0       :      0.02s CPU      0.05s WALL (       1 calls)

     Called by electrons:
     c_bands      :      6.52s CPU      6.99s WALL (       9 calls)
     sum_band     :      1.05s CPU      1.11s WALL (       9 calls)
     v_of_rho     :      0.03s CPU      0.06s WALL (      10 calls)
     newd         :      0.02s CPU      0.02s WALL (      10 calls)
     mix_rho      :      0.01s CPU      0.01s WALL (       9 calls)

     Called by c_bands:
     init_us_2    :      0.08s CPU      0.08s WALL (    4515 calls)
     init_us_2:cp :      0.07s CPU      0.08s WALL (    4515 calls)
     cegterg      :      6.17s CPU      6.45s WALL (    1935 calls)

     Called by *egterg:
     cdiaghg      :      0.82s CPU      0.85s WALL (    6585 calls)
     h_psi        :      4.76s CPU      4.99s WALL (    6800 calls)
     s_psi        :      0.09s CPU      0.09s WALL (    6800 calls)
     g_psi        :      0.02s CPU      0.02s WALL (    4650 calls)

     Called by h_psi:
     h_psi:calbec :      0.30s CPU      0.31s WALL (    6800 calls)
     vloc_psi     :      4.33s CPU      4.54s WALL (    6800 calls)
     add_vuspsi   :      0.10s CPU      0.10s WALL (    6800 calls)

     General routines
     calbec       :      0.44s CPU      0.46s WALL (    9810 calls)
     fft          :      0.03s CPU      0.10s WALL (     153 calls)
     ffts         :      0.00s CPU      0.01s WALL (      19 calls)
     fftw         :      4.80s CPU      5.02s WALL (  148252 calls)
     interpolate  :      0.00s CPU      0.01s WALL (      10 calls)
 
     Parallel routines
 
     PWSCF        :      8.64s CPU     11.07s WALL

 
   This run was terminated on:   3:35: 8  11Jun2026            

=------------------------------------------------------------------------------=
   JOB DONE.
=------------------------------------------------------------------------------=
