
     Program PWSCF v.7.1 starts on 11Jun2026 at  3:52:22 

     This program is part of the open-source Quantum ESPRESSO suite
     for quantum simulation of materials; please cite
         "P. Giannozzi et al., J. Phys.:Condens. Matter 21 395502 (2009);
         "P. Giannozzi et al., J. Phys.:Condens. Matter 29 465901 (2017);
         "P. Giannozzi et al., J. Chem. Phys. 152 154105 (2020);
          URL http://www.quantum-espresso.org", 
     in publications or presentations arising from this work. More details at
     http://www.quantum-espresso.org/quote

     Parallel version (MPI & OpenMP), running on       7 processor cores
     Number of MPI processes:                 7
     Threads/MPI process:                     1

     MPI processes distributed on     7 nodes
     222977 MiB available memory on the printing compute node when the environment starts
 
     Waiting for input...
     Reading input from standard input
Warning: card &CELL ignored
Warning: card / ignored
Warning: card &FCP ignored
Warning: card / ignored
Warning: card &RISM ignored
Warning: card / ignored

     Current dimensions of program PWSCF are:
     Max number of different atomic species (ntypx) = 10
     Max number of k-points (npk) =  40000
     Max angular momentum in pseudopotentials (lmaxx) =  4

     IMPORTANT: XC functional enforced from input :
     Exchange-correlation= VDW-DF2-B86R
                           (   1   4  26   0   2   0   0)
     Any further DFT definition will be discarded
     Please, verify this is what you really want

     Message from routine setup:
     using ibrav=0 with symmetry is DISCOURAGED, use correct ibrav instead
 
     R & G space division:  proc/nbgrp/npool/nimage =       7
     Subspace diagonalization in iterative solution of the eigenvalue problem:
     a serial algorithm will be used

 
     Parallelization info
     --------------------
     sticks:   dense  smooth     PW     G-vecs:    dense   smooth      PW
     Min          85      34     12                10985     2776     520
     Max          85      35     13                11003     2791     531
     Sum         595     241     85                76927    19477    3681
 
     Using Slab Decomposition
 


     bravais-lattice index     =            0
     lattice parameter (alat)  =       4.6633  a.u.
     unit-cell volume          =     569.4282 (a.u.)^3
     number of atoms/cell      =            4
     number of atomic types    =            1
     number of electrons       =        16.00
     number of Kohn-Sham states=           12
     kinetic-energy cutoff     =      40.0000  Ry
     charge density cutoff     =     400.0000  Ry
     scf convergence threshold =      1.0E-08
     mixing beta               =       0.3000
     number of iterations used =            8  plain     mixing
     Exchange-correlation= VDW-DF2-B86R
                           (   1   4  26   0   2   0   0)

     celldm(1)=   4.663315  celldm(2)=   0.000000  celldm(3)=   0.000000
     celldm(4)=   0.000000  celldm(5)=   0.000000  celldm(6)=   0.000000

     crystal axes: (cart. coord. in units of alat)
               a(1) = (   1.000000   0.000000   0.000000 )  
               a(2) = (  -0.500000   0.866025   0.000000 )  
               a(3) = (   0.000000   0.000000   6.483718 )  

     reciprocal axes: (cart. coord. in units 2 pi/alat)
               b(1) = (  1.000000  0.577350  0.000000 )  
               b(2) = (  0.000000  1.154701  0.000000 )  
               b(3) = (  0.000000  0.000000  0.154233 )  


     PseudoPot. # 1 for C  read from file:
     /home/k0750/k075000/PSPOT/c_pbe_v1.2.uspp.F.UPF
     MD5 check sum: d1aef80898a10debaa0f26306b886e00
     Pseudo is Ultrasoft + core correction, Zval =  4.0
     Generated by new atomic code, or converted to UPF format
     Using radial grid of  721 points,  4 beta functions with: 
                l(1) =   0
                l(2) =   0
                l(3) =   1
                l(4) =   1
     Q(r) pseudized with  8 coefficients,  rinner =    1.100   1.100   1.100


     atomic species   valence    mass     pseudopotential
        C              4.00    12.01100     C ( 1.00)

      8 Sym. Ops., with inversion, found ( 4 have fractional translation)



   Cartesian axes

     site n.     atom                  positions (alat units)
         1           C   tau(   1) = (   0.0000000   0.0000000   4.8627883  )
         2           C   tau(   2) = (   0.0000000   0.0000000   1.6209294  )
         3           C   tau(   3) = (  -0.0000050   0.5773532   4.8627883  )
         4           C   tau(   4) = (   0.5000050   0.2886722   1.6209294  )

     number of k points=   215  Marzari-Vanderbilt smearing, width (Ry)=  0.0100

     Number of k-points >= 100: set verbosity='high' to print them.

     Dense  grid:    76927 G-vectors     FFT dimensions: (  30,  30, 200)

     Smooth grid:    19477 G-vectors     FFT dimensions: (  20,  20, 128)

     Estimated max dynamical RAM per process >      29.62 MB

     Estimated total dynamical RAM >     207.34 MB

     Initial potential from superposition of free atoms

     starting charge      15.9998, renormalised to      16.0000


     %%%%%%%%%%%%%%%%%%%%%%%%%%%%%%%%%%%%%%%%%%%%%%%%%%%%%%%%%%%%%%%%%%%%%%%%
     %                                                                      %
     % You are using vdW-DF, which was implemented by the Thonhauser group. %
     % Please cite the following two papers that made this development      %
     % possible and the two reviews that describe the various versions:     %
     %                                                                      %
     %   T. Thonhauser et al., PRL 115, 136402 (2015).                      %
     %   T. Thonhauser et al., PRB 76, 125112 (2007).                       %
     %   K. Berland et al., Rep. Prog. Phys. 78, 066501 (2015).             %
     %   D.C. Langreth et al., J. Phys.: Condens. Matter 21, 084203 (2009). %
     %                                                                      %
     % If you are calculating stress with vdW-DF, please also cite:         %
     %                                                                      %
     %   R. Sabatini et al., J. Phys.: Condens. Matter 24, 424209 (2012).   %
     %                                                                      %
     %%%%%%%%%%%%%%%%%%%%%%%%%%%%%%%%%%%%%%%%%%%%%%%%%%%%%%%%%%%%%%%%%%%%%%%%

     %%%%%%%%%%%%%%%%%%%%%%%%%%%%%%%%%%%%%%%%%%%%%%%%%%%%%%%%%%%%%%%%%%%%%%%%
     %                                                                      %
     %  vdW-DF NEWS:                                                        %
     %                                                                      %
     %  * vdW-DF3 is now available. DOI: 10.1021/acs.jctc.0c00471           %
     %    use with input_dft = 'vdW-DF3-opt1' or 'vdW-DF3-opt2'             %
     %                                                                      %
     %  * Unscreened and range-separated vdW-DF hybrid functionals          %
     %    DOI: 10.1063/1.4986522 and 10.1088/1361-648X/ac2ad2               %
     %    use with input_dft = 'vdW-DF-cx0' (etc) and 'vdW-DF-ahcx'         %
     %                                                                      %
     %%%%%%%%%%%%%%%%%%%%%%%%%%%%%%%%%%%%%%%%%%%%%%%%%%%%%%%%%%%%%%%%%%%%%%%%


     Starting wfcs are   16 randomized atomic wfcs

     total cpu time spent up to now is       13.9 secs

     Self-consistent Calculation

     iteration #  1     ecut=    40.00 Ry     beta= 0.30
     Davidson diagonalization with overlap
     ethr =  1.00E-02,  avg # of iterations =  2.5

     total cpu time spent up to now is       16.1 secs

     total energy              =     -46.03336223 Ry
     estimated scf accuracy    <       0.38378250 Ry

     iteration #  2     ecut=    40.00 Ry     beta= 0.30
     Davidson diagonalization with overlap
     ethr =  2.40E-03,  avg # of iterations =  1.9

     negative rho (up, down):  7.268E-06 0.000E+00

     total cpu time spent up to now is       17.9 secs

     total energy              =     -45.96025473 Ry
     estimated scf accuracy    <       0.13907015 Ry

     iteration #  3     ecut=    40.00 Ry     beta= 0.30
     Davidson diagonalization with overlap
     ethr =  8.69E-04,  avg # of iterations =  4.2

     negative rho (up, down):  3.019E-06 0.000E+00

     total cpu time spent up to now is       20.2 secs

     total energy              =     -45.98843143 Ry
     estimated scf accuracy    <       0.00430745 Ry

     iteration #  4     ecut=    40.00 Ry     beta= 0.30
     Davidson diagonalization with overlap
     c_bands:  1 eigenvalues not converged
     c_bands:  1 eigenvalues not converged
     c_bands:  1 eigenvalues not converged
     c_bands:  1 eigenvalues not converged
     c_bands:  1 eigenvalues not converged
     ethr =  2.69E-05,  avg # of iterations =  8.5

     negative rho (up, down):  1.916E-05 0.000E+00

     total cpu time spent up to now is       23.2 secs

     total energy              =     -45.98416831 Ry
     estimated scf accuracy    <       0.01398306 Ry

     iteration #  5     ecut=    40.00 Ry     beta= 0.30
     Davidson diagonalization with overlap
     ethr =  2.69E-05,  avg # of iterations =  3.7

     negative rho (up, down):  1.858E-05 0.000E+00

     total cpu time spent up to now is       25.4 secs

     total energy              =     -45.98660988 Ry
     estimated scf accuracy    <       0.00001115 Ry

     iteration #  6     ecut=    40.00 Ry     beta= 0.30
     Davidson diagonalization with overlap
     ethr =  6.97E-08,  avg # of iterations =  4.5

     negative rho (up, down):  2.011E-05 0.000E+00

     total cpu time spent up to now is       27.7 secs

     total energy              =     -45.98661805 Ry
     estimated scf accuracy    <       0.00000098 Ry

     iteration #  7     ecut=    40.00 Ry     beta= 0.30
     Davidson diagonalization with overlap
     ethr =  6.13E-09,  avg # of iterations =  2.1

     negative rho (up, down):  2.096E-05 0.000E+00

     total cpu time spent up to now is       29.5 secs

     total energy              =     -45.98661860 Ry
     estimated scf accuracy    <       0.00000095 Ry

     iteration #  8     ecut=    40.00 Ry     beta= 0.30
     Davidson diagonalization with overlap
     ethr =  5.95E-09,  avg # of iterations =  1.0

     negative rho (up, down):  2.163E-05 0.000E+00

     total cpu time spent up to now is       31.0 secs

     total energy              =     -45.98661883 Ry
     estimated scf accuracy    <       0.00000016 Ry

     iteration #  9     ecut=    40.00 Ry     beta= 0.30
     Davidson diagonalization with overlap
     ethr =  1.03E-09,  avg # of iterations =  2.0

     negative rho (up, down):  2.415E-05 0.000E+00

     total cpu time spent up to now is       32.8 secs

     End of self-consistent calculation

     Number of k-points >= 100: set verbosity='high' to print the bands.

     the Fermi energy is     0.3965 ev

!    total energy              =     -45.98661897 Ry
     estimated scf accuracy    <          4.2E-09 Ry
     smearing contrib. (-TS)   =      -0.00018232 Ry
     internal energy E=F+TS    =     -45.98643665 Ry

     The total energy is F=E-TS. E is the sum of the following terms:
     one-electron contribution =    -128.15711545 Ry
     hartree contribution      =      68.10870952 Ry
     xc contribution           =     -14.54554529 Ry
     ewald contribution        =      28.60751457 Ry

     convergence has been achieved in   9 iterations

     negative rho (up, down):  2.415E-05 0.000E+00

     Forces acting on atoms (cartesian axes, Ry/au):

     atom    1 type  1   force =    -0.00002008    0.00001159    0.00000000
     atom    2 type  1   force =     0.00002008   -0.00001159    0.00000000
     atom    3 type  1   force =     0.00002005   -0.00001158    0.00000000
     atom    4 type  1   force =    -0.00002005    0.00001158    0.00000000

     Total force =     0.000046     Total SCF correction =     0.000001


     Computing stress (Cartesian axis) and pressure


     negative rho (up, down):  2.415E-05 0.000E+00
          total   stress  (Ry/bohr**3)                   (kbar)     P=       -4.43
  -0.00003883   0.00000000   0.00000000           -5.71        0.00        0.00
   0.00000000  -0.00003883   0.00000000            0.00       -5.71        0.00
   0.00000000   0.00000000  -0.00001265            0.00        0.00       -1.86


     Writing all to output data dir ./tmp/graphite_d_8p00000.save/
 
     init_run     :     13.64s CPU     13.86s WALL (       1 calls)
     electrons    :     17.87s CPU     18.93s WALL (       1 calls)
     forces       :      0.19s CPU      0.21s WALL (       1 calls)
     stress       :      0.51s CPU      0.58s WALL (       1 calls)

     Called by init_run:
     wfcinit      :      0.71s CPU      0.77s WALL (       1 calls)
     potinit      :     12.77s CPU     12.87s WALL (       1 calls)
     hinit0       :      0.04s CPU      0.08s WALL (       1 calls)

     Called by electrons:
     c_bands      :     14.68s CPU     15.29s WALL (       9 calls)
     sum_band     :      2.27s CPU      2.38s WALL (       9 calls)
     v_of_rho     :     13.59s CPU     14.01s WALL (      10 calls)
     newd         :      0.10s CPU      0.10s WALL (      10 calls)
     mix_rho      :      0.01s CPU      0.01s WALL (       9 calls)
     vdW_kernel   :     12.68s CPU     12.71s WALL (       1 calls)

     Called by c_bands:
     init_us_2    :      0.19s CPU      0.20s WALL (    4515 calls)
     init_us_2:cp :      0.19s CPU      0.20s WALL (    4515 calls)
     cegterg      :     13.95s CPU     14.33s WALL (    1935 calls)

     Called by *egterg:
     cdiaghg      :      1.07s CPU      1.13s WALL (    8488 calls)
     h_psi        :     11.57s CPU     11.89s WALL (    8703 calls)
     s_psi        :      0.26s CPU      0.26s WALL (    8703 calls)
     g_psi        :      0.06s CPU      0.06s WALL (    6553 calls)

     Called by h_psi:
     h_psi:calbec :      0.53s CPU      0.54s WALL (    8703 calls)
     vloc_psi     :     10.73s CPU     11.03s WALL (    8703 calls)
     add_vuspsi   :      0.26s CPU      0.27s WALL (    8703 calls)

     General routines
     calbec       :      0.75s CPU      0.76s WALL (   11713 calls)
     fft          :      0.87s CPU      1.37s WALL (     797 calls)
     ffts         :      0.01s CPU      0.02s WALL (      19 calls)
     fftw         :     11.72s CPU     12.05s WALL (  163838 calls)
     interpolate  :      0.01s CPU      0.01s WALL (      10 calls)
 
     Parallel routines
 
     PWSCF        :     32.78s CPU     34.73s WALL

 
   This run was terminated on:   3:52:56  11Jun2026            

=------------------------------------------------------------------------------=
   JOB DONE.
=------------------------------------------------------------------------------=
