
     Program BANDS v.7.1 starts on 10Jun2026 at 22:17:17 

     This program is part of the open-source Quantum ESPRESSO suite
     for quantum simulation of materials; please cite
         "P. Giannozzi et al., J. Phys.:Condens. Matter 21 395502 (2009);
         "P. Giannozzi et al., J. Phys.:Condens. Matter 29 465901 (2017);
         "P. Giannozzi et al., J. Chem. Phys. 152 154105 (2020);
          URL http://www.quantum-espresso.org", 
     in publications or presentations arising from this work. More details at
     http://www.quantum-espresso.org/quote

     Parallel version (MPI & OpenMP), running on       7 processor cores
     Number of MPI processes:                 7
     Threads/MPI process:                     1

     MPI processes distributed on     7 nodes
     R & G space division:  proc/nbgrp/npool/nimage =       7
     224159 MiB available memory on the printing compute node when the environment starts
 

     Reading xml data from directory:

     ./data/scf.save/

     IMPORTANT: XC functional enforced from input :
     Exchange-correlation= PBE
                           (   1   4   3   4   0   0   0)
     Any further DFT definition will be discarded
     Please, verify this is what you really want

 
     Parallelization info
     --------------------
     sticks:   dense  smooth     PW     G-vecs:    dense   smooth      PW
     Min         233      92     30                 6227     1564     300
     Max         235      93     31                 6229     1568     303
     Sum        1639     649    211                43599    10969    2109
 
     Using Slab Decomposition
 
     Reading collected, re-writing distributed wavefunctions
     high-symmetry point:  0.3536-0.3536 0.3536   x coordinate   0.0000
     high-symmetry point:  0.0000 0.0000 0.0000   x coordinate   0.6124
     high-symmetry point:  0.0000-0.7071 0.0000   x coordinate   1.3195
     high-symmetry point: -0.7071-0.7071 0.7071   x coordinate   2.3195

     Plottable bands (eV) written to file GaAs.band.gnu
     Bands written to file GaAs.band

 **************************************************************************

                    xk=(   0.35355,  -0.35355,   0.35355  )

     point group C_3v (3m)  
     there are  3 classes
     the character table:

       E     2C3   3s_v 
A_1    1.00  1.00  1.00
A_2    1.00  1.00 -1.00
E      2.00 -1.00  0.00

     the symmetry operations in each class and the name of the first element:

     E        1
                                                                 
     2C3      2    3
                                                                 
     3s_v     4    5    6
                                                                 

     Band symmetry, C_3v (3m)   point group:

     e(  1 -  3) =    -87.58493  eV     3   --> A_1  L_1       
     e(  1 -  3) =    -87.58493  eV     3   --> E    L_3       
     e(  4 -  4) =     -8.06117  eV     1   --> A_1  L_1       
     e(  5 -  6) =     -7.97840  eV     2   --> E    L_3       
     e(  7 -  8) =     -7.92333  eV     2   --> E    L_3       
     e(  9 -  9) =     -4.10450  eV     1   --> A_1  L_1       
     e( 10 - 10) =      0.28417  eV     1   --> A_1  L_1       
     e( 11 - 12) =      5.59209  eV     2   --> E    L_3       
     e( 13 - 13) =      7.52300  eV     1   --> A_1  L_1       
     e( 14 - 15) =     11.28057  eV     2   --> E    L_3       
     e( 16 - 16) =     14.37844  eV     1   --> A_1  L_1       

 **************************************************************************

 **************************************************************************

                    xk=(   0.34471,  -0.34471,   0.34471  )

     Band symmetry, C_3v (3m)   point group:

     e(  1 -  3) =    -87.58493  eV     3   --> A_1  L_1       
     e(  1 -  3) =    -87.58493  eV     3   --> E    L_3       
     e(  4 -  4) =     -8.06107  eV     1   --> A_1  L_1       
     e(  5 -  6) =     -7.97842  eV     2   --> E    L_3       
     e(  7 -  8) =     -7.92335  eV     2   --> E    L_3       
     e(  9 -  9) =     -4.10863  eV     1   --> A_1  L_1       
     e( 10 - 10) =      0.29177  eV     1   --> A_1  L_1       
     e( 11 - 12) =      5.59326  eV     2   --> E    L_3       
     e( 13 - 13) =      7.52424  eV     1   --> A_1  L_1       
     e( 14 - 15) =     11.28115  eV     2   --> E    L_3       
     e( 16 - 16) =     14.37833  eV     1   --> A_1  L_1       

 **************************************************************************

 **************************************************************************

                    xk=(   0.33588,  -0.33588,   0.33588  )

     Band symmetry, C_3v (3m)   point group:

     e(  1 -  3) =    -87.58493  eV     3   --> A_1  L_1       
     e(  1 -  3) =    -87.58493  eV     3   --> E    L_3       
     e(  4 -  4) =     -8.06080  eV     1   --> A_1  L_1       
     e(  5 -  6) =     -7.97847  eV     2   --> E    L_3       
     e(  7 -  8) =     -7.92339  eV     2   --> E    L_3       
     e(  9 -  9) =     -4.12093  eV     1   --> A_1  L_1       
     e( 10 - 10) =      0.31447  eV     1   --> A_1  L_1       
     e( 11 - 12) =      5.59678  eV     2   --> E    L_3       
     e( 13 - 13) =      7.52793  eV     1   --> A_1  L_1       
     e( 14 - 15) =     11.28288  eV     2   --> E    L_3       
     e( 16 - 16) =     14.37779  eV     1   --> A_1  L_1       

 **************************************************************************

 **************************************************************************

                    xk=(   0.32704,  -0.32704,   0.32704  )

     Band symmetry, C_3v (3m)   point group:

     e(  1 -  1) =    -87.58503  eV     1   --> A_1  L_1       
     e(  2 -  3) =    -87.58492  eV     2   --> E    L_3       
     e(  4 -  4) =     -8.06038  eV     1   --> A_1  L_1       
     e(  5 -  6) =     -7.97855  eV     2   --> E    L_3       
     e(  7 -  8) =     -7.92346  eV     2   --> E    L_3       
     e(  9 -  9) =     -4.14110  eV     1   --> A_1  L_1       
     e( 10 - 10) =      0.35198  eV     1   --> A_1  L_1       
     e( 11 - 12) =      5.60265  eV     2   --> E    L_3       
     e( 13 - 13) =      7.53406  eV     1   --> A_1  L_1       
     e( 14 - 15) =     11.28569  eV     2   --> E    L_3       
     e( 16 - 16) =     14.37620  eV     1   --> A_1  L_1       

 **************************************************************************

 **************************************************************************

                    xk=(   0.31820,  -0.31820,   0.31820  )

     Band symmetry, C_3v (3m)   point group:

     e(  1 -  1) =    -87.58507  eV     1   --> A_1  L_1       
     e(  2 -  3) =    -87.58490  eV     2   --> E    L_3       
     e(  4 -  4) =     -8.05976  eV     1   --> A_1  L_1       
     e(  5 -  6) =     -7.97868  eV     2   --> E    L_3       
     e(  7 -  8) =     -7.92356  eV     2   --> E    L_3       
     e(  9 -  9) =     -4.16871  eV     1   --> A_1  L_1       
     e( 10 - 10) =      0.40384  eV     1   --> A_1  L_1       
     e( 11 - 12) =      5.61085  eV     2   --> E    L_3       
     e( 13 - 13) =      7.54263  eV     1   --> A_1  L_1       
     e( 14 - 15) =     11.28945  eV     2   --> E    L_3       
     e( 16 - 16) =     14.37240  eV     1   --> A_1  L_1       

 **************************************************************************

 **************************************************************************

                    xk=(   0.30936,  -0.30936,   0.30936  )

     Band symmetry, C_3v (3m)   point group:

     e(  1 -  1) =    -87.58507  eV     1   --> A_1  L_1       
     e(  2 -  3) =    -87.58490  eV     2   --> E    L_3       
     e(  4 -  4) =     -8.05896  eV     1   --> A_1  L_1       
     e(  5 -  6) =     -7.97883  eV     2   --> E    L_3       
     e(  7 -  8) =     -7.92368  eV     2   --> E    L_3       
     e(  9 -  9) =     -4.20317  eV     1   --> A_1  L_1       
     e( 10 - 10) =      0.46946  eV     1   --> A_1  L_1       
     e( 11 - 12) =      5.62136  eV     2   --> E    L_3       
     e( 13 - 13) =      7.55362  eV     1   --> A_1  L_1       
     e( 14 - 15) =     11.29401  eV     2   --> E    L_3       
     e( 16 - 16) =     14.36457  eV     1   --> A_1  L_1       

 **************************************************************************

 **************************************************************************

                    xk=(   0.30052,  -0.30052,   0.30052  )

     Band symmetry, C_3v (3m)   point group:

     e(  1 -  1) =    -87.58507  eV     1   --> A_1  L_1       
     e(  2 -  3) =    -87.58490  eV     2   --> E    L_3       
     e(  4 -  4) =     -8.05799  eV     1   --> A_1  L_1       
     e(  5 -  6) =     -7.97902  eV     2   --> E    L_3       
     e(  7 -  8) =     -7.92383  eV     2   --> E    L_3       
     e(  9 -  9) =     -4.24379  eV     1   --> A_1  L_1       
     e( 10 - 10) =      0.54814  eV     1   --> A_1  L_1       
     e( 11 - 12) =      5.63416  eV     2   --> E    L_3       
     e( 13 - 13) =      7.56698  eV     1   --> A_1  L_1       
     e( 14 - 15) =     11.29914  eV     2   --> E    L_3       
     e( 16 - 16) =     14.34999  eV     1   --> A_1  L_1       

 **************************************************************************

 **************************************************************************

                    xk=(   0.29168,  -0.29168,   0.29168  )

     Band symmetry, C_3v (3m)   point group:

     e(  1 -  3) =    -87.58496  eV     3   --> A_1  L_1       
     e(  1 -  3) =    -87.58496  eV     3   --> E    L_3       
     e(  4 -  4) =     -8.05682  eV     1   --> A_1  L_1       
     e(  5 -  6) =     -7.97924  eV     2   --> E    L_3       
     e(  7 -  8) =     -7.92399  eV     2   --> E    L_3       
     e(  9 -  9) =     -4.28984  eV     1   --> A_1  L_1       
     e( 10 - 10) =      0.63910  eV     1   --> A_1  L_1       
     e( 11 - 12) =      5.64923  eV     2   --> E    L_3       
     e( 13 - 13) =      7.58270  eV     1   --> A_1  L_1       
     e( 14 - 15) =     11.30459  eV     2   --> E    L_3       
     e( 16 - 16) =     14.32480  eV     1   --> A_1  L_1       

 **************************************************************************

 **************************************************************************

                    xk=(   0.28284,  -0.28284,   0.28284  )

     Band symmetry, C_3v (3m)   point group:

     e(  1 -  1) =    -87.58511  eV     1   --> A_1  L_1       
     e(  2 -  3) =    -87.58493  eV     2   --> E    L_3       
     e(  4 -  4) =     -8.05555  eV     1   --> A_1  L_1       
     e(  5 -  6) =     -7.97951  eV     2   --> E    L_3       
     e(  7 -  8) =     -7.92419  eV     2   --> E    L_3       
     e(  9 -  9) =     -4.34057  eV     1   --> A_1  L_1       
     e( 10 - 10) =      0.74155  eV     1   --> A_1  L_1       
     e( 11 - 12) =      5.66654  eV     2   --> E    L_3       
     e( 13 - 13) =      7.60069  eV     1   --> A_1  L_1       
     e( 14 - 15) =     11.31003  eV     2   --> E    L_3       
     e( 16 - 16) =     14.28402  eV     1   --> A_1  L_1       

 **************************************************************************

 **************************************************************************

                    xk=(   0.27400,  -0.27400,   0.27400  )

     Band symmetry, C_3v (3m)   point group:

     e(  1 -  1) =    -87.58495  eV     1   --> A_1  L_1       
     e(  2 -  3) =    -87.58485  eV     2   --> E    L_3       
     e(  4 -  4) =     -8.05409  eV     1   --> A_1  L_1       
     e(  5 -  6) =     -7.97979  eV     2   --> E    L_3       
     e(  7 -  8) =     -7.92435  eV     2   --> E    L_3       
     e(  9 -  9) =     -4.39521  eV     1   --> A_1  L_1       
     e( 10 - 10) =      0.85472  eV     1   --> A_1  L_1       
     e( 11 - 12) =      5.68605  eV     2   --> E    L_3       
     e( 13 - 13) =      7.62090  eV     1   --> A_1  L_1       
     e( 14 - 15) =     11.31511  eV     2   --> E    L_3       
     e( 16 - 16) =     14.22212  eV     1   --> A_1  L_1       

 **************************************************************************

 **************************************************************************

                    xk=(   0.26517,  -0.26517,   0.26517  )

     Band symmetry, C_3v (3m)   point group:

     e(  1 -  1) =    -87.58493  eV     1   --> A_1  L_1       
     e(  2 -  3) =    -87.58475  eV     2   --> E    L_3       
     e(  4 -  4) =     -8.05247  eV     1   --> A_1  L_1       
     e(  5 -  6) =     -7.98010  eV     2   --> E    L_3       
     e(  7 -  8) =     -7.92456  eV     2   --> E    L_3       
     e(  9 -  9) =     -4.45302  eV     1   --> A_1  L_1       
     e( 10 - 10) =      0.97779  eV     1   --> A_1  L_1       
     e( 11 - 12) =      5.70774  eV     2   --> E    L_3       
     e( 13 - 13) =      7.64325  eV     1   --> A_1  L_1       
     e( 14 - 15) =     11.31939  eV     2   --> E    L_3       
     e( 16 - 16) =     14.13455  eV     1   --> A_1  L_1       

 **************************************************************************

 **************************************************************************

                    xk=(   0.25633,  -0.25633,   0.25633  )

     Band symmetry, C_3v (3m)   point group:

     e(  1 -  1) =    -87.58493  eV     1   --> A_1  L_1       
     e(  2 -  3) =    -87.58475  eV     2   --> E    L_3       
     e(  4 -  4) =     -8.05073  eV     1   --> A_1  L_1       
     e(  5 -  6) =     -7.98048  eV     2   --> E    L_3       
     e(  7 -  8) =     -7.92477  eV     2   --> E    L_3       
     e(  9 -  9) =     -4.51331  eV     1   --> A_1  L_1       
     e( 10 - 10) =      1.11004  eV     1   --> A_1  L_1       
     e( 11 - 12) =      5.73153  eV     2   --> E    L_3       
     e( 13 - 13) =      7.66766  eV     1   --> A_1  L_1       
     e( 14 - 15) =     11.32244  eV     2   --> E    L_3       
     e( 16 - 16) =     14.01972  eV     1   --> A_1  L_1       

 **************************************************************************

 **************************************************************************

                    xk=(   0.24749,  -0.24749,   0.24749  )

     Band symmetry, C_3v (3m)   point group:

     e(  1 -  1) =    -87.58485  eV     1   --> A_1  L_1       
     e(  2 -  3) =    -87.58473  eV     2   --> E    L_3       
     e(  4 -  4) =     -8.04884  eV     1   --> A_1  L_1       
     e(  5 -  6) =     -7.98089  eV     2   --> E    L_3       
     e(  7 -  8) =     -7.92497  eV     2   --> E    L_3       
     e(  9 -  9) =     -4.57545  eV     1   --> A_1  L_1       
     e( 10 - 10) =      1.25076  eV     1   --> A_1  L_1       
     e( 11 - 12) =      5.75738  eV     2   --> E    L_3       
     e( 13 - 13) =      7.69398  eV     1   --> A_1  L_1       
     e( 14 - 15) =     11.32375  eV     2   --> E    L_3       
     e( 16 - 16) =     13.87981  eV     1   --> A_1  L_1       

 **************************************************************************

 **************************************************************************

                    xk=(   0.23865,  -0.23865,   0.23865  )

     Band symmetry, C_3v (3m)   point group:

     e(  1 -  3) =    -87.58470  eV     3   --> A_1  L_1       
     e(  1 -  3) =    -87.58470  eV     3   --> E    L_3       
     e(  4 -  4) =     -8.04681  eV     1   --> A_1  L_1       
     e(  5 -  6) =     -7.98133  eV     2   --> E    L_3       
     e(  7 -  8) =     -7.92518  eV     2   --> E    L_3       
     e(  9 -  9) =     -4.63883  eV     1   --> A_1  L_1       
     e( 10 - 10) =      1.39930  eV     1   --> A_1  L_1       
     e( 11 - 12) =      5.78522  eV     2   --> E    L_3       
     e( 13 - 13) =      7.72212  eV     1   --> A_1  L_1       
     e( 14 - 15) =     11.32279  eV     2   --> E    L_3       
     e( 16 - 16) =     13.71954  eV     1   --> A_1  L_1       

 **************************************************************************

 **************************************************************************

                    xk=(   0.22981,  -0.22981,   0.22981  )

     Band symmetry, C_3v (3m)   point group:

     e(  1 -  3) =    -87.58470  eV     3   --> A_1  L_1       
     e(  1 -  3) =    -87.58470  eV     3   --> E    L_3       
     e(  4 -  4) =     -8.04469  eV     1   --> A_1  L_1       
     e(  5 -  6) =     -7.98181  eV     2   --> E    L_3       
     e(  7 -  8) =     -7.92539  eV     2   --> E    L_3       
     e(  9 -  9) =     -4.70292  eV     1   --> A_1  L_1       
     e( 10 - 10) =      1.55506  eV     1   --> A_1  L_1       
     e( 11 - 12) =      5.81497  eV     2   --> E    L_3       
     e( 13 - 13) =      7.75187  eV     1   --> A_1  L_1       
     e( 14 - 15) =     11.31903  eV     2   --> E    L_3       
     e( 16 - 16) =     13.54427  eV     1   --> A_1  L_1       

 **************************************************************************

 **************************************************************************

                    xk=(   0.22097,  -0.22097,   0.22097  )

     Band symmetry, C_3v (3m)   point group:

     e(  1 -  3) =    -87.58471  eV     3   --> A_1  L_1       
     e(  1 -  3) =    -87.58471  eV     3   --> E    L_3       
     e(  4 -  4) =     -8.04248  eV     1   --> A_1  L_1       
     e(  5 -  6) =     -7.98233  eV     2   --> E    L_3       
     e(  7 -  8) =     -7.92559  eV     2   --> E    L_3       
     e(  9 -  9) =     -4.76724  eV     1   --> A_1  L_1       
     e( 10 - 10) =      1.71748  eV     1   --> A_1  L_1       
     e( 11 - 12) =      5.84657  eV     2   --> E    L_3       
     e( 13 - 13) =      7.78303  eV     1   --> A_1  L_1       
     e( 14 - 15) =     11.31192  eV     2   --> E    L_3       
     e( 16 - 16) =     13.35874  eV     1   --> A_1  L_1       

 **************************************************************************

 **************************************************************************

                    xk=(   0.21213,  -0.21213,   0.21213  )

     Band symmetry, C_3v (3m)   point group:

     e(  1 -  2) =    -87.58477  eV     2   --> E    L_3       
     e(  3 -  3) =    -87.58464  eV     1   --> A_1  L_1       
     e(  4 -  4) =     -8.04015  eV     1   --> A_1  L_1       
     e(  5 -  6) =     -7.98290  eV     2   --> E    L_3       
     e(  7 -  8) =     -7.92579  eV     2   --> E    L_3       
     e(  9 -  9) =     -4.83135  eV     1   --> A_1  L_1       
     e( 10 - 10) =      1.88605  eV     1   --> A_1  L_1       
     e( 11 - 12) =      5.87989  eV     2   --> E    L_3       
     e( 13 - 13) =      7.81536  eV     1   --> A_1  L_1       
     e( 14 - 15) =     11.30096  eV     2   --> E    L_3       
     e( 16 - 16) =     13.16668  eV     1   --> A_1  L_1       

 **************************************************************************

 **************************************************************************

                    xk=(   0.20329,  -0.20329,   0.20329  )

     Band symmetry, C_3v (3m)   point group:

     e(  1 -  2) =    -87.58477  eV     2   --> E    L_3       
     e(  3 -  3) =    -87.58463  eV     1   --> A_1  L_1       
     e(  4 -  4) =     -8.03776  eV     1   --> A_1  L_1       
     e(  5 -  6) =     -7.98348  eV     2   --> E    L_3       
     e(  7 -  8) =     -7.92597  eV     2   --> E    L_3       
     e(  9 -  9) =     -4.89487  eV     1   --> A_1  L_1       
     e( 10 - 10) =      2.06027  eV     1   --> A_1  L_1       
     e( 11 - 12) =      5.91487  eV     2   --> E    L_3       
     e( 13 - 13) =      7.84855  eV     1   --> A_1  L_1       
     e( 14 - 15) =     11.28568  eV     2   --> E    L_3       
     e( 16 - 16) =     12.97089  eV     1   --> A_1  L_1       

 **************************************************************************

 **************************************************************************

                    xk=(   0.19445,  -0.19445,   0.19445  )

     Band symmetry, C_3v (3m)   point group:

     e(  1 -  2) =    -87.58495  eV     2   --> E    L_3       
     e(  3 -  3) =    -87.58467  eV     1   --> A_1  L_1       
     e(  4 -  4) =     -8.03530  eV     1   --> A_1  L_1       
     e(  5 -  6) =     -7.98412  eV     2   --> E    L_3       
     e(  7 -  8) =     -7.92616  eV     2   --> E    L_3       
     e(  9 -  9) =     -4.95745  eV     1   --> A_1  L_1       
     e( 10 - 10) =      2.23971  eV     1   --> A_1  L_1       
     e( 11 - 12) =      5.95134  eV     2   --> E    L_3       
     e( 13 - 13) =      7.88222  eV     1   --> A_1  L_1       
     e( 14 - 15) =     11.26571  eV     2   --> E    L_3       
     e( 16 - 16) =     12.77347  eV     1   --> A_1  L_1       

 **************************************************************************

 **************************************************************************

                    xk=(   0.18562,  -0.18562,   0.18562  )

     Band symmetry, C_3v (3m)   point group:

     e(  1 -  2) =    -87.58493  eV     2   --> E    L_3       
     e(  3 -  3) =    -87.58460  eV     1   --> A_1  L_1       
     e(  4 -  4) =     -8.03278  eV     1   --> A_1  L_1       
     e(  5 -  6) =     -7.98475  eV     2   --> E    L_3       
     e(  7 -  8) =     -7.92631  eV     2   --> E    L_3       
     e(  9 -  9) =     -5.01879  eV     1   --> A_1  L_1       
     e( 10 - 10) =      2.42395  eV     1   --> A_1  L_1       
     e( 11 - 12) =      5.98923  eV     2   --> E    L_3       
     e( 13 - 13) =      7.91593  eV     1   --> A_1  L_1       
     e( 14 - 15) =     11.24079  eV     2   --> E    L_3       
     e( 16 - 16) =     12.57607  eV     1   --> A_1  L_1       

 **************************************************************************

 **************************************************************************

                    xk=(   0.17678,  -0.17678,   0.17678  )

     Band symmetry, C_3v (3m)   point group:

     e(  1 -  2) =    -87.58493  eV     2   --> E    L_3       
     e(  3 -  3) =    -87.58459  eV     1   --> A_1  L_1       
     e(  4 -  4) =     -8.03022  eV     1   --> A_1  L_1       
     e(  5 -  6) =     -7.98540  eV     2   --> E    L_3       
     e(  7 -  8) =     -7.92645  eV     2   --> E    L_3       
     e(  9 -  9) =     -5.07862  eV     1   --> A_1  L_1       
     e( 10 - 10) =      2.61260  eV     1   --> A_1  L_1       
     e( 11 - 12) =      6.02836  eV     2   --> E    L_3       
     e( 13 - 13) =      7.94913  eV     1   --> A_1  L_1       
     e( 14 - 15) =     11.21078  eV     2   --> E    L_3       
     e( 16 - 16) =     12.38003  eV     1   --> A_1  L_1       

 **************************************************************************

 **************************************************************************

                    xk=(   0.16794,  -0.16794,   0.16794  )

     Band symmetry, C_3v (3m)   point group:

     e(  1 -  2) =    -87.58493  eV     2   --> E    L_3       
     e(  3 -  3) =    -87.58459  eV     1   --> A_1  L_1       
     e(  4 -  4) =     -8.02764  eV     1   --> A_1  L_1       
     e(  5 -  6) =     -7.98608  eV     2   --> E    L_3       
     e(  7 -  8) =     -7.92657  eV     2   --> E    L_3       
     e(  9 -  9) =     -5.13669  eV     1   --> A_1  L_1       
     e( 10 - 10) =      2.80528  eV     1   --> A_1  L_1       
     e( 11 - 12) =      6.06856  eV     2   --> E    L_3       
     e( 13 - 13) =      7.98114  eV     1   --> A_1  L_1       
     e( 14 - 15) =     11.17571  eV     2   --> E    L_3       
     e( 16 - 16) =     12.18653  eV     1   --> A_1  L_1       

 **************************************************************************

 **************************************************************************

                    xk=(   0.15910,  -0.15910,   0.15910  )

     Band symmetry, C_3v (3m)   point group:

     e(  1 -  2) =    -87.58493  eV     2   --> E    L_3       
     e(  3 -  3) =    -87.58458  eV     1   --> A_1  L_1       
     e(  4 -  4) =     -8.02504  eV     1   --> A_1  L_1       
     e(  5 -  6) =     -7.98676  eV     2   --> E    L_3       
     e(  7 -  8) =     -7.92667  eV     2   --> E    L_3       
     e(  9 -  9) =     -5.19279  eV     1   --> A_1  L_1       
     e( 10 - 10) =      3.00163  eV     1   --> A_1  L_1       
     e( 11 - 12) =      6.10965  eV     2   --> E    L_3       
     e( 13 - 13) =      8.01115  eV     1   --> A_1  L_1       
     e( 14 - 15) =     11.13577  eV     2   --> E    L_3       
     e( 16 - 16) =     11.99668  eV     1   --> A_1  L_1       

 **************************************************************************

 **************************************************************************

                    xk=(   0.15026,  -0.15026,   0.15026  )

     Band symmetry, C_3v (3m)   point group:

     e(  1 -  2) =    -87.58493  eV     2   --> E    L_3       
     e(  3 -  3) =    -87.58458  eV     1   --> A_1  L_1       
     e(  4 -  4) =     -8.02245  eV     1   --> A_1  L_1       
     e(  5 -  6) =     -7.98745  eV     2   --> E    L_3       
     e(  7 -  8) =     -7.92676  eV     2   --> E    L_3       
     e(  9 -  9) =     -5.24673  eV     1   --> A_1  L_1       
     e( 10 - 10) =      3.20131  eV     1   --> A_1  L_1       
     e( 11 - 12) =      6.15143  eV     2   --> E    L_3       
     e( 13 - 13) =      8.03818  eV     1   --> A_1  L_1       
     e( 14 - 15) =     11.09131  eV     2   --> E    L_3       
     e( 16 - 16) =     11.81159  eV     1   --> A_1  L_1       

 **************************************************************************

 **************************************************************************

                    xk=(   0.14142,  -0.14142,   0.14142  )

     Band symmetry, C_3v (3m)   point group:

     e(  1 -  2) =    -87.58499  eV     2   --> E    L_3       
     e(  3 -  3) =    -87.58465  eV     1   --> A_1  L_1       
     e(  4 -  4) =     -8.01989  eV     1   --> A_1  L_1       
     e(  5 -  6) =     -7.98816  eV     2   --> E    L_3       
     e(  7 -  8) =     -7.92684  eV     2   --> E    L_3       
     e(  9 -  9) =     -5.29833  eV     1   --> A_1  L_1       
     e( 10 - 10) =      3.40396  eV     1   --> A_1  L_1       
     e( 11 - 12) =      6.19366  eV     2   --> E    L_3       
     e( 13 - 13) =      8.06103  eV     1   --> A_1  L_1       
     e( 14 - 15) =     11.04281  eV     2   --> E    L_3       
     e( 16 - 16) =     11.63247  eV     1   --> A_1  L_1       

 **************************************************************************

 **************************************************************************

                    xk=(   0.13258,  -0.13258,   0.13258  )

     Band symmetry, C_3v (3m)   point group:

     e(  1 -  2) =    -87.58491  eV     2   --> E    L_3       
     e(  3 -  3) =    -87.58461  eV     1   --> A_1  L_1       
     e(  4 -  4) =     -8.01735  eV     1   --> A_1  L_1       
     e(  5 -  6) =     -7.98883  eV     2   --> E    L_3       
     e(  7 -  8) =     -7.92688  eV     2   --> E    L_3       
     e(  9 -  9) =     -5.34746  eV     1   --> A_1  L_1       
     e( 10 - 10) =      3.60926  eV     1   --> A_1  L_1       
     e( 11 - 12) =      6.23610  eV     2   --> E    L_3       
     e( 13 - 13) =      8.07830  eV     1   --> A_1  L_1       
     e( 14 - 15) =     10.99095  eV     2   --> E    L_3       
     e( 16 - 16) =     11.46063  eV     1   --> A_1  L_1       

 **************************************************************************

 **************************************************************************

                    xk=(   0.12374,  -0.12374,   0.12374  )

     Band symmetry, C_3v (3m)   point group:

     e(  1 -  2) =    -87.58498  eV     2   --> E    L_3       
     e(  3 -  3) =    -87.58468  eV     1   --> A_1  L_1       
     e(  4 -  4) =     -8.01488  eV     1   --> A_1  L_1       
     e(  5 -  6) =     -7.98952  eV     2   --> E    L_3       
     e(  7 -  8) =     -7.92693  eV     2   --> E    L_3       
     e(  9 -  9) =     -5.39396  eV     1   --> A_1  L_1       
     e( 10 - 10) =      3.81684  eV     1   --> A_1  L_1       
     e( 11 - 12) =      6.27845  eV     2   --> E    L_3       
     e( 13 - 13) =      8.08832  eV     1   --> A_1  L_1       
     e( 14 - 15) =     10.93645  eV     2   --> E    L_3       
     e( 16 - 16) =     11.29750  eV     1   --> A_1  L_1       

 **************************************************************************

 **************************************************************************

                    xk=(   0.11490,  -0.11490,   0.11490  )

     Band symmetry, C_3v (3m)   point group:

     e(  1 -  2) =    -87.58498  eV     2   --> E    L_3       
     e(  3 -  3) =    -87.58468  eV     1   --> A_1  L_1       
     e(  4 -  4) =     -8.01248  eV     1   --> A_1  L_1       
     e(  5 -  6) =     -7.99018  eV     2   --> E    L_3       
     e(  7 -  8) =     -7.92695  eV     2   --> E    L_3       
     e(  9 -  9) =     -5.43772  eV     1   --> A_1  L_1       
     e( 10 - 10) =      4.02637  eV     1   --> A_1  L_1       
     e( 11 - 12) =      6.32043  eV     2   --> E    L_3       
     e( 13 - 13) =      8.08923  eV     1   --> A_1  L_1       
     e( 14 - 15) =     10.88016  eV     2   --> E    L_3       
     e( 16 - 16) =     11.14468  eV     1   --> A_1  L_1       

 **************************************************************************

 **************************************************************************

                    xk=(   0.10607,  -0.10607,   0.10607  )

     Band symmetry, C_3v (3m)   point group:

     e(  1 -  2) =    -87.58491  eV     2   --> E    L_3       
     e(  3 -  3) =    -87.58462  eV     1   --> A_1  L_1       
     e(  4 -  4) =     -8.01016  eV     1   --> A_1  L_1       
     e(  5 -  6) =     -7.99082  eV     2   --> E    L_3       
     e(  7 -  8) =     -7.92695  eV     2   --> E    L_3       
     e(  9 -  9) =     -5.47863  eV     1   --> A_1  L_1       
     e( 10 - 10) =      4.23750  eV     1   --> A_1  L_1       
     e( 11 - 12) =      6.36170  eV     2   --> E    L_3       
     e( 13 - 13) =      8.07899  eV     1   --> A_1  L_1       
     e( 14 - 15) =     10.82296  eV     2   --> E    L_3       
     e( 16 - 16) =     11.00385  eV     1   --> A_1  L_1       

 **************************************************************************

 **************************************************************************

                    xk=(   0.09723,  -0.09723,   0.09723  )

     Band symmetry, C_3v (3m)   point group:

     e(  1 -  2) =    -87.58491  eV     2   --> E    L_3       
     e(  3 -  3) =    -87.58462  eV     1   --> A_1  L_1       
     e(  4 -  4) =     -8.00796  eV     1   --> A_1  L_1       
     e(  5 -  6) =     -7.99143  eV     2   --> E    L_3       
     e(  7 -  8) =     -7.92695  eV     2   --> E    L_3       
     e(  9 -  9) =     -5.51660  eV     1   --> A_1  L_1       
     e( 10 - 10) =      4.44983  eV     1   --> A_1  L_1       
     e( 11 - 12) =      6.40190  eV     2   --> E    L_3       
     e( 13 - 13) =      8.05548  eV     1   --> A_1  L_1       
     e( 14 - 15) =     10.76578  eV     2   --> E    L_3       
     e( 16 - 16) =     10.87665  eV     1   --> A_1  L_1       

 **************************************************************************

 **************************************************************************

                    xk=(   0.08839,  -0.08839,   0.08839  )

     Band symmetry, C_3v (3m)   point group:

     e(  1 -  3) =    -87.58494  eV     3   --> A_1  L_1       
     e(  1 -  3) =    -87.58494  eV     3   --> E    L_3       
     e(  4 -  4) =     -8.00591  eV     1   --> A_1  L_1       
     e(  5 -  6) =     -7.99202  eV     2   --> E    L_3       
     e(  7 -  8) =     -7.92697  eV     2   --> E    L_3       
     e(  9 -  9) =     -5.55154  eV     1   --> A_1  L_1       
     e( 10 - 10) =      4.66296  eV     1   --> A_1  L_1       
     e( 11 - 12) =      6.44063  eV     2   --> E    L_3       
     e( 13 - 13) =      8.01669  eV     1   --> A_1  L_1       
     e( 14 - 15) =     10.70956  eV     2   --> E    L_3       
     e( 16 - 16) =     10.76452  eV     1   --> A_1  L_1       

 **************************************************************************

 **************************************************************************

                    xk=(   0.07955,  -0.07955,   0.07955  )

     Band symmetry, C_3v (3m)   point group:

     e(  1 -  3) =    -87.58494  eV     3   --> A_1  L_1       
     e(  1 -  3) =    -87.58494  eV     3   --> E    L_3       
     e(  4 -  4) =     -8.00397  eV     1   --> A_1  L_1       
     e(  5 -  6) =     -7.99256  eV     2   --> E    L_3       
     e(  7 -  8) =     -7.92697  eV     2   --> E    L_3       
     e(  9 -  9) =     -5.58336  eV     1   --> A_1  L_1       
     e( 10 - 10) =      4.87651  eV     1   --> A_1  L_1       
     e( 11 - 12) =      6.47752  eV     2   --> E    L_3       
     e( 13 - 13) =      7.96107  eV     1   --> A_1  L_1       
     e( 14 - 15) =     10.65523  eV     2   --> E    L_3       
     e( 16 - 16) =     10.66849  eV     1   --> A_1  L_1       

 **************************************************************************

 **************************************************************************

                    xk=(   0.07071,  -0.07071,   0.07071  )

     Band symmetry, C_3v (3m)   point group:

     e(  1 -  3) =    -87.58493  eV     3   --> A_1  L_1       
     e(  1 -  3) =    -87.58493  eV     3   --> E    L_3       
     e(  4 -  4) =     -8.00219  eV     1   --> A_1  L_1       
     e(  5 -  6) =     -7.99305  eV     2   --> E    L_3       
     e(  7 -  8) =     -7.92696  eV     2   --> E    L_3       
     e(  9 -  9) =     -5.61202  eV     1   --> A_1  L_1       
     e( 10 - 10) =      5.09002  eV     1   --> A_1  L_1       
     e( 11 - 12) =      6.51211  eV     2   --> E    L_3       
     e( 13 - 13) =      7.88755  eV     1   --> A_1  L_1       
     e( 14 - 14) =     10.58893  eV     1   --> A_1  L_1       
     e( 15 - 16) =     10.60370  eV     2   --> E    L_3       

 **************************************************************************

 **************************************************************************

                    xk=(   0.06187,  -0.06187,   0.06187  )

     Band symmetry, C_3v (3m)   point group:

     e(  1 -  3) =    -87.58495  eV     3   --> A_1  L_1       
     e(  1 -  3) =    -87.58495  eV     3   --> E    L_3       
     e(  4 -  4) =     -8.00059  eV     1   --> A_1  L_1       
     e(  5 -  6) =     -7.99350  eV     2   --> E    L_3       
     e(  7 -  8) =     -7.92695  eV     2   --> E    L_3       
     e(  9 -  9) =     -5.63743  eV     1   --> A_1  L_1       
     e( 10 - 10) =      5.30299  eV     1   --> A_1  L_1       
     e( 11 - 12) =      6.54399  eV     2   --> E    L_3       
     e( 13 - 13) =      7.79582  eV     1   --> A_1  L_1       
     e( 14 - 14) =     10.52540  eV     1   --> A_1  L_1       
     e( 15 - 16) =     10.55584  eV     2   --> E    L_3       

 **************************************************************************

 **************************************************************************

                    xk=(   0.05303,  -0.05303,   0.05303  )

     Band symmetry, C_3v (3m)   point group:

     e(  1 -  3) =    -87.58494  eV     3   --> A_1  L_1       
     e(  1 -  3) =    -87.58494  eV     3   --> E    L_3       
     e(  4 -  4) =     -7.99916  eV     1   --> A_1  L_1       
     e(  5 -  6) =     -7.99390  eV     2   --> E    L_3       
     e(  7 -  8) =     -7.92694  eV     2   --> E    L_3       
     e(  9 -  9) =     -5.65956  eV     1   --> A_1  L_1       
     e( 10 - 10) =      5.51488  eV     1   --> A_1  L_1       
     e( 11 - 12) =      6.57273  eV     2   --> E    L_3       
     e( 13 - 13) =      7.68638  eV     1   --> A_1  L_1       
     e( 14 - 14) =     10.47673  eV     1   --> A_1  L_1       
     e( 15 - 16) =     10.51248  eV     2   --> E    L_3       

 **************************************************************************

 **************************************************************************

                    xk=(   0.04419,  -0.04419,   0.04419  )

     Band symmetry, C_3v (3m)   point group:

     e(  1 -  3) =    -87.58494  eV     3   --> A_1  L_1       
     e(  1 -  3) =    -87.58494  eV     3   --> E    L_3       
     e(  4 -  4) =     -7.99793  eV     1   --> A_1  L_1       
     e(  5 -  6) =     -7.99425  eV     2   --> E    L_3       
     e(  7 -  8) =     -7.92692  eV     2   --> E    L_3       
     e(  9 -  9) =     -5.67836  eV     1   --> A_1  L_1       
     e( 10 - 10) =      5.72507  eV     1   --> A_1  L_1       
     e( 11 - 12) =      6.59790  eV     2   --> E    L_3       
     e( 13 - 13) =      7.56037  eV     1   --> A_1  L_1       
     e( 14 - 14) =     10.44105  eV     1   --> A_1  L_1       
     e( 15 - 16) =     10.47437  eV     2   --> E    L_3       

 **************************************************************************

 **************************************************************************

                    xk=(   0.03536,  -0.03536,   0.03536  )

     Band symmetry, C_3v (3m)   point group:

     e(  1 -  3) =    -87.58494  eV     3   --> A_1  L_1       
     e(  1 -  3) =    -87.58494  eV     3   --> E    L_3       
     e(  4 -  4) =     -7.99690  eV     1   --> A_1  L_1       
     e(  5 -  6) =     -7.99453  eV     2   --> E    L_3       
     e(  7 -  8) =     -7.92691  eV     2   --> E    L_3       
     e(  9 -  9) =     -5.69379  eV     1   --> A_1  L_1       
     e( 10 - 10) =      5.93283  eV     1   --> A_1  L_1       
     e( 11 - 12) =      6.61911  eV     2   --> E    L_3       
     e( 13 - 13) =      7.41945  eV     1   --> A_1  L_1       
     e( 14 - 14) =     10.41613  eV     1   --> A_1  L_1       
     e( 15 - 16) =     10.44219  eV     2   --> E    L_3       

 **************************************************************************

 **************************************************************************

                    xk=(   0.02652,  -0.02652,   0.02652  )

     Band symmetry, C_3v (3m)   point group:

     e(  1 -  3) =    -87.58493  eV     3   --> A_1  L_1       
     e(  1 -  3) =    -87.58493  eV     3   --> E    L_3       
     e(  4 -  4) =     -7.99608  eV     1   --> A_1  L_1       
     e(  5 -  6) =     -7.99475  eV     2   --> E    L_3       
     e(  7 -  8) =     -7.92689  eV     2   --> E    L_3       
     e(  9 -  9) =     -5.70583  eV     1   --> A_1  L_1       
     e( 10 - 10) =      6.13721  eV     1   --> A_1  L_1       
     e( 11 - 12) =      6.63601  eV     2   --> E    L_3       
     e( 13 - 13) =      7.26563  eV     1   --> A_1  L_1       
     e( 14 - 14) =     10.39970  eV     1   --> A_1  L_1       
     e( 15 - 16) =     10.41653  eV     2   --> E    L_3       

 **************************************************************************

 **************************************************************************

                    xk=(   0.01768,  -0.01768,   0.01768  )

     Band symmetry, C_3v (3m)   point group:

     e(  1 -  3) =    -87.58493  eV     3   --> A_1  L_1       
     e(  1 -  3) =    -87.58493  eV     3   --> E    L_3       
     e(  4 -  4) =     -7.99550  eV     1   --> A_1  L_1       
     e(  5 -  6) =     -7.99491  eV     2   --> E    L_3       
     e(  7 -  8) =     -7.92688  eV     2   --> E    L_3       
     e(  9 -  9) =     -5.71444  eV     1   --> A_1  L_1       
     e( 10 - 10) =      6.33670  eV     1   --> A_1  L_1       
     e( 11 - 12) =      6.64831  eV     2   --> E    L_3       
     e( 13 - 13) =      7.10144  eV     1   --> A_1  L_1       
     e( 14 - 14) =     10.38965  eV     1   --> A_1  L_1       
     e( 15 - 16) =     10.39785  eV     2   --> E    L_3       

 **************************************************************************

 **************************************************************************

                    xk=(   0.00884,  -0.00884,   0.00884  )

     Band symmetry, C_3v (3m)   point group:

     e(  1 -  1) =    -87.58482  eV     1   --> A_1  L_1       
     e(  2 -  3) =    -87.58470  eV     2   --> E    L_3       
     e(  4 -  4) =     -7.99515  eV     1   --> A_1  L_1       
     e(  5 -  6) =     -7.99498  eV     2   --> E    L_3       
     e(  7 -  8) =     -7.92685  eV     2   --> E    L_3       
     e(  9 -  9) =     -5.71961  eV     1   --> A_1  L_1       
     e( 10 - 10) =      6.52707  eV     1   --> A_1  L_1       
     e( 11 - 12) =      6.65578  eV     2   --> E    L_3       
     e( 13 - 13) =      6.93191  eV     1   --> A_1  L_1       
     e( 14 - 14) =     10.38434  eV     1   --> A_1  L_1       
     e( 15 - 16) =     10.38651  eV     2   --> E    L_3       

 **************************************************************************

 **************************************************************************

                    xk=(   0.00000,   0.00000,   0.00000  )

     point group T_d (-43m) 
     there are  5 classes
     the character table:

       E     8C3   3C2   6S4   6s_d 
A_1    1.00  1.00  1.00  1.00  1.00
A_2    1.00  1.00  1.00 -1.00 -1.00
E      2.00 -1.00  2.00  0.00  0.00
T_1    3.00  0.00 -1.00  1.00 -1.00
T_2    3.00  0.00 -1.00 -1.00  1.00

     the symmetry operations in each class and the name of the first element:

     E        1
                                                                 
     8C3      5    7    8    6   12    9   10   11
                                                                 
     3C2      2    3    4
                                                                 
     6S4     15   16   20   19   23   24
                                                                 
     6s_d    13   14   17   18   21   22
                                                                 

     Band symmetry, T_d (-43m)  point group:

     e(  1 -  3) =    -87.58467  eV     3   --> T_2  G_15 P_4  
     e(  4 -  6) =     -7.99501  eV     3   --> T_2  G_15 P_4  
     e(  7 -  8) =     -7.92683  eV     2   --> E    G_12 P_3  
     e(  9 -  9) =     -5.72133  eV     1   --> A_1  G_1  P_1  
     e( 10 - 12) =      6.65829  eV     3   --> T_2  G_15 P_4  
     e( 13 - 13) =      6.80758  eV     1   --> A_1  G_1  P_1  
     e( 14 - 16) =     10.38271  eV     3   --> T_2  G_15 P_4  

 **************************************************************************

 **************************************************************************

                    xk=(   0.00000,  -0.01179,   0.00000  )

     point group C_2v (mm2) 
     there are  4 classes
     the character table:

       E     C2    s_v   s_v' 
A_1    1.00  1.00  1.00  1.00
A_2    1.00  1.00 -1.00 -1.00
B_1    1.00 -1.00  1.00 -1.00
B_2    1.00 -1.00 -1.00  1.00

     the symmetry operations in each class and the name of the first element:

     E        1
                                                                 
     C2       2
                                                                 
     s_v      4
                                                                 
     s_v'     3
                                                                 

     Band symmetry, C_2v (mm2)  point group:

     e(  1 -  3) =    -87.58467  eV     3   --> A_1  D_1  S_1  
     e(  1 -  3) =    -87.58467  eV     3   --> B_1  D_3  S_3  
     e(  1 -  3) =    -87.58467  eV     3   --> B_2  D_4  S_4  
     e(  4 -  4) =     -7.99509  eV     1   --> A_1  D_1  S_1  
     e(  5 -  6) =     -7.99498  eV     2   --> B_1  D_3  S_3  
     e(  5 -  6) =     -7.99498  eV     2   --> B_2  D_4  S_4  
     e(  7 -  8) =     -7.92684  eV     2   --> A_1  D_1  S_1  
     e(  7 -  8) =     -7.92684  eV     2   --> A_2  D_2  S_2  
     e(  9 -  9) =     -5.72031  eV     1   --> A_1  D_1  S_1  
     e( 10 - 10) =      6.57068  eV     1   --> A_1  D_1  S_1  
     e( 11 - 12) =      6.65484  eV     2   --> B_1  D_3  S_3  
     e( 11 - 12) =      6.65484  eV     2   --> B_2  D_4  S_4  
     e( 13 - 13) =      6.89504  eV     1   --> A_1  D_1  S_1  
     e( 14 - 14) =     10.37867  eV     1   --> A_1  D_1  S_1  
     e( 15 - 16) =     10.38747  eV     2   --> B_1  D_3  S_3  
     e( 15 - 16) =     10.38747  eV     2   --> B_2  D_4  S_4  

 **************************************************************************

 **************************************************************************

                    xk=(   0.00000,  -0.02357,   0.00000  )

     Band symmetry, C_2v (mm2)  point group:

     e(  1 -  1) =    -87.58490  eV     1   --> A_1  D_1  S_1  
     e(  2 -  3) =    -87.58469  eV     2   --> B_1  D_3  S_3  
     e(  2 -  3) =    -87.58469  eV     2   --> B_2  D_4  S_4  
     e(  4 -  4) =     -7.99535  eV     1   --> A_1  D_1  S_1  
     e(  5 -  6) =     -7.99492  eV     2   --> B_1  D_3  S_3  
     e(  5 -  6) =     -7.99492  eV     2   --> B_2  D_4  S_4  
     e(  7 -  7) =     -7.92691  eV     1   --> A_1  D_1  S_1  
     e(  8 -  8) =     -7.92680  eV     1   --> A_2  D_2  S_2  
     e(  9 -  9) =     -5.71724  eV     1   --> A_1  D_1  S_1  
     e( 10 - 10) =      6.43527  eV     1   --> A_1  D_1  S_1  
     e( 11 - 12) =      6.64456  eV     2   --> B_1  D_3  S_3  
     e( 11 - 12) =      6.64456  eV     2   --> B_2  D_4  S_4  
     e( 13 - 13) =      7.03000  eV     1   --> A_1  D_1  S_1  
     e( 14 - 14) =     10.36663  eV     1   --> A_1  D_1  S_1  
     e( 15 - 16) =     10.40168  eV     2   --> B_1  D_3  S_3  
     e( 15 - 16) =     10.40168  eV     2   --> B_2  D_4  S_4  

 **************************************************************************

 **************************************************************************

                    xk=(   0.00000,  -0.03536,   0.00000  )

     Band symmetry, C_2v (mm2)  point group:

     e(  1 -  1) =    -87.58493  eV     1   --> A_1  D_1  S_1  
     e(  2 -  3) =    -87.58481  eV     2   --> B_1  D_3  S_3  
     e(  2 -  3) =    -87.58481  eV     2   --> B_2  D_4  S_4  
     e(  4 -  4) =     -7.99579  eV     1   --> A_1  D_1  S_1  
     e(  5 -  6) =     -7.99479  eV     2   --> B_1  D_3  S_3  
     e(  5 -  6) =     -7.99479  eV     2   --> B_2  D_4  S_4  
     e(  7 -  7) =     -7.92696  eV     1   --> A_1  D_1  S_1  
     e(  8 -  8) =     -7.92679  eV     1   --> A_2  D_2  S_2  
     e(  9 -  9) =     -5.71214  eV     1   --> A_1  D_1  S_1  
     e( 10 - 10) =      6.29435  eV     1   --> A_1  D_1  S_1  
     e( 11 - 12) =      6.62761  eV     2   --> B_1  D_3  S_3  
     e( 11 - 12) =      6.62761  eV     2   --> B_2  D_4  S_4  
     e( 13 - 13) =      7.17012  eV     1   --> A_1  D_1  S_1  
     e( 14 - 14) =     10.34692  eV     1   --> A_1  D_1  S_1  
     e( 15 - 16) =     10.42517  eV     2   --> B_1  D_3  S_3  
     e( 15 - 16) =     10.42517  eV     2   --> B_2  D_4  S_4  

 **************************************************************************

 **************************************************************************

                    xk=(   0.00000,  -0.04714,   0.00000  )

     Band symmetry, C_2v (mm2)  point group:

     e(  1 -  1) =    -87.58493  eV     1   --> A_1  D_1  S_1  
     e(  2 -  3) =    -87.58481  eV     2   --> B_1  D_3  S_3  
     e(  2 -  3) =    -87.58481  eV     2   --> B_2  D_4  S_4  
     e(  4 -  4) =     -7.99638  eV     1   --> A_1  D_1  S_1  
     e(  5 -  6) =     -7.99460  eV     2   --> B_1  D_3  S_3  
     e(  5 -  6) =     -7.99460  eV     2   --> B_2  D_4  S_4  
     e(  7 -  7) =     -7.92703  eV     1   --> A_1  D_1  S_1  
     e(  8 -  8) =     -7.92674  eV     1   --> A_2  D_2  S_2  
     e(  9 -  9) =     -5.70499  eV     1   --> A_1  D_1  S_1  
     e( 10 - 10) =      6.15202  eV     1   --> A_1  D_1  S_1  
     e( 11 - 12) =      6.60428  eV     2   --> B_1  D_3  S_3  
     e( 11 - 12) =      6.60428  eV     2   --> B_2  D_4  S_4  
     e( 13 - 13) =      7.31121  eV     1   --> A_1  D_1  S_1  
     e( 14 - 14) =     10.31998  eV     1   --> A_1  D_1  S_1  
     e( 15 - 16) =     10.45768  eV     2   --> B_1  D_3  S_3  
     e( 15 - 16) =     10.45768  eV     2   --> B_2  D_4  S_4  

 **************************************************************************

 **************************************************************************

                    xk=(   0.00000,  -0.05893,   0.00000  )

     Band symmetry, C_2v (mm2)  point group:

     e(  1 -  1) =    -87.58493  eV     1   --> A_1  D_1  S_1  
     e(  2 -  3) =    -87.58481  eV     2   --> B_1  D_3  S_3  
     e(  2 -  3) =    -87.58481  eV     2   --> B_2  D_4  S_4  
     e(  4 -  4) =     -7.99714  eV     1   --> A_1  D_1  S_1  
     e(  5 -  6) =     -7.99436  eV     2   --> B_1  D_3  S_3  
     e(  5 -  6) =     -7.99436  eV     2   --> B_2  D_4  S_4  
     e(  7 -  7) =     -7.92713  eV     1   --> A_1  D_1  S_1  
     e(  8 -  8) =     -7.92667  eV     1   --> A_2  D_2  S_2  
     e(  9 -  9) =     -5.69581  eV     1   --> A_1  D_1  S_1  
     e( 10 - 10) =      6.00927  eV     1   --> A_1  D_1  S_1  
     e( 11 - 12) =      6.57492  eV     2   --> B_1  D_3  S_3  
     e( 11 - 12) =      6.57492  eV     2   --> B_2  D_4  S_4  
     e( 13 - 13) =      7.45217  eV     1   --> A_1  D_1  S_1  
     e( 14 - 14) =     10.28638  eV     1   --> A_1  D_1  S_1  
     e( 15 - 16) =     10.49883  eV     2   --> B_1  D_3  S_3  
     e( 15 - 16) =     10.49883  eV     2   --> B_2  D_4  S_4  

 **************************************************************************

 **************************************************************************

                    xk=(   0.00000,  -0.07071,   0.00000  )

     Band symmetry, C_2v (mm2)  point group:

     e(  1 -  3) =    -87.58494  eV     3   --> A_1  D_1  S_1  
     e(  1 -  3) =    -87.58494  eV     3   --> B_1  D_3  S_3  
     e(  1 -  3) =    -87.58494  eV     3   --> B_2  D_4  S_4  
     e(  4 -  4) =     -7.99809  eV     1   --> A_1  D_1  S_1  
     e(  5 -  6) =     -7.99406  eV     2   --> B_1  D_3  S_3  
     e(  5 -  6) =     -7.99406  eV     2   --> B_2  D_4  S_4  
     e(  7 -  7) =     -7.92725  eV     1   --> A_1  D_1  S_1  
     e(  8 -  8) =     -7.92661  eV     1   --> A_2  D_2  S_2  
     e(  9 -  9) =     -5.68461  eV     1   --> A_1  D_1  S_1  
     e( 10 - 10) =      5.86646  eV     1   --> A_1  D_1  S_1  
     e( 11 - 12) =      6.53995  eV     2   --> B_1  D_3  S_3  
     e( 11 - 12) =      6.53995  eV     2   --> B_2  D_4  S_4  
     e( 13 - 13) =      7.59248  eV     1   --> A_1  D_1  S_1  
     e( 14 - 14) =     10.24681  eV     1   --> A_1  D_1  S_1  
     e( 15 - 16) =     10.54818  eV     2   --> B_1  D_3  S_3  
     e( 15 - 16) =     10.54818  eV     2   --> B_2  D_4  S_4  

 **************************************************************************

 **************************************************************************

                    xk=(   0.00000,  -0.08250,   0.00000  )

     Band symmetry, C_2v (mm2)  point group:

     e(  1 -  3) =    -87.58494  eV     3   --> A_1  D_1  S_1  
     e(  1 -  3) =    -87.58494  eV     3   --> B_1  D_3  S_3  
     e(  1 -  3) =    -87.58494  eV     3   --> B_2  D_4  S_4  
     e(  4 -  4) =     -7.99916  eV     1   --> A_1  D_1  S_1  
     e(  5 -  6) =     -7.99371  eV     2   --> B_1  D_3  S_3  
     e(  5 -  6) =     -7.99371  eV     2   --> B_2  D_4  S_4  
     e(  7 -  7) =     -7.92739  eV     1   --> A_1  D_1  S_1  
     e(  8 -  8) =     -7.92651  eV     1   --> A_2  D_2  S_2  
     e(  9 -  9) =     -5.67140  eV     1   --> A_1  D_1  S_1  
     e( 10 - 10) =      5.72379  eV     1   --> A_1  D_1  S_1  
     e( 11 - 12) =      6.49984  eV     2   --> B_1  D_3  S_3  
     e( 11 - 12) =      6.49984  eV     2   --> B_2  D_4  S_4  
     e( 13 - 13) =      7.73174  eV     1   --> A_1  D_1  S_1  
     e( 14 - 14) =     10.20204  eV     1   --> A_1  D_1  S_1  
     e( 15 - 16) =     10.60528  eV     2   --> B_1  D_3  S_3  
     e( 15 - 16) =     10.60528  eV     2   --> B_2  D_4  S_4  

 **************************************************************************

 **************************************************************************

                    xk=(   0.00000,  -0.09428,   0.00000  )

     Band symmetry, C_2v (mm2)  point group:

     e(  1 -  3) =    -87.58494  eV     3   --> A_1  D_1  S_1  
     e(  1 -  3) =    -87.58494  eV     3   --> B_1  D_3  S_3  
     e(  1 -  3) =    -87.58494  eV     3   --> B_2  D_4  S_4  
     e(  4 -  4) =     -8.00038  eV     1   --> A_1  D_1  S_1  
     e(  5 -  6) =     -7.99330  eV     2   --> B_1  D_3  S_3  
     e(  5 -  6) =     -7.99330  eV     2   --> B_2  D_4  S_4  
     e(  7 -  7) =     -7.92754  eV     1   --> A_1  D_1  S_1  
     e(  8 -  8) =     -7.92639  eV     1   --> A_2  D_2  S_2  
     e(  9 -  9) =     -5.65618  eV     1   --> A_1  D_1  S_1  
     e( 10 - 10) =      5.58137  eV     1   --> A_1  D_1  S_1  
     e( 11 - 12) =      6.45511  eV     2   --> B_1  D_3  S_3  
     e( 11 - 12) =      6.45511  eV     2   --> B_2  D_4  S_4  
     e( 13 - 13) =      7.86959  eV     1   --> A_1  D_1  S_1  
     e( 14 - 14) =     10.15284  eV     1   --> A_1  D_1  S_1  
     e( 15 - 16) =     10.66960  eV     2   --> B_1  D_3  S_3  
     e( 15 - 16) =     10.66960  eV     2   --> B_2  D_4  S_4  

 **************************************************************************

 **************************************************************************

                    xk=(   0.00000,  -0.10607,   0.00000  )

     Band symmetry, C_2v (mm2)  point group:

     e(  1 -  3) =    -87.58495  eV     3   --> A_1  D_1  S_1  
     e(  1 -  3) =    -87.58495  eV     3   --> B_1  D_3  S_3  
     e(  1 -  3) =    -87.58495  eV     3   --> B_2  D_4  S_4  
     e(  4 -  4) =     -8.00174  eV     1   --> A_1  D_1  S_1  
     e(  5 -  6) =     -7.99285  eV     2   --> B_1  D_3  S_3  
     e(  5 -  6) =     -7.99285  eV     2   --> B_2  D_4  S_4  
     e(  7 -  7) =     -7.92772  eV     1   --> A_1  D_1  S_1  
     e(  8 -  8) =     -7.92626  eV     1   --> A_2  D_2  S_2  
     e(  9 -  9) =     -5.63897  eV     1   --> A_1  D_1  S_1  
     e( 10 - 10) =      5.43928  eV     1   --> A_1  D_1  S_1  
     e( 11 - 12) =      6.40624  eV     2   --> B_1  D_3  S_3  
     e( 11 - 12) =      6.40624  eV     2   --> B_2  D_4  S_4  
     e( 13 - 13) =      8.00561  eV     1   --> A_1  D_1  S_1  
     e( 14 - 14) =     10.10003  eV     1   --> A_1  D_1  S_1  
     e( 15 - 16) =     10.74065  eV     2   --> B_1  D_3  S_3  
     e( 15 - 16) =     10.74065  eV     2   --> B_2  D_4  S_4  

 **************************************************************************

 **************************************************************************

                    xk=(   0.00000,  -0.11785,   0.00000  )

     Band symmetry, C_2v (mm2)  point group:

     e(  1 -  1) =    -87.58508  eV     1   --> A_1  D_1  S_1  
     e(  2 -  3) =    -87.58495  eV     2   --> B_1  D_3  S_3  
     e(  2 -  3) =    -87.58495  eV     2   --> B_2  D_4  S_4  
     e(  4 -  4) =     -8.00323  eV     1   --> A_1  D_1  S_1  
     e(  5 -  6) =     -7.99234  eV     2   --> B_1  D_3  S_3  
     e(  5 -  6) =     -7.99234  eV     2   --> B_2  D_4  S_4  
     e(  7 -  7) =     -7.92796  eV     1   --> A_1  D_1  S_1  
     e(  8 -  8) =     -7.92612  eV     1   --> A_2  D_2  S_2  
     e(  9 -  9) =     -5.61979  eV     1   --> A_1  D_1  S_1  
     e( 10 - 10) =      5.29757  eV     1   --> A_1  D_1  S_1  
     e( 11 - 12) =      6.35375  eV     2   --> B_1  D_3  S_3  
     e( 11 - 12) =      6.35375  eV     2   --> B_2  D_4  S_4  
     e( 13 - 13) =      8.13933  eV     1   --> A_1  D_1  S_1  
     e( 14 - 14) =     10.04444  eV     1   --> A_1  D_1  S_1  
     e( 15 - 16) =     10.81789  eV     2   --> B_1  D_3  S_3  
     e( 15 - 16) =     10.81789  eV     2   --> B_2  D_4  S_4  

 **************************************************************************

 **************************************************************************

                    xk=(   0.00000,  -0.12964,   0.00000  )

     Band symmetry, C_2v (mm2)  point group:

     e(  1 -  3) =    -87.58496  eV     3   --> A_1  D_1  S_1  
     e(  1 -  3) =    -87.58496  eV     3   --> B_1  D_3  S_3  
     e(  1 -  3) =    -87.58496  eV     3   --> B_2  D_4  S_4  
     e(  4 -  4) =     -8.00485  eV     1   --> A_1  D_1  S_1  
     e(  5 -  6) =     -7.99178  eV     2   --> B_1  D_3  S_3  
     e(  5 -  6) =     -7.99178  eV     2   --> B_2  D_4  S_4  
     e(  7 -  7) =     -7.92816  eV     1   --> A_1  D_1  S_1  
     e(  8 -  8) =     -7.92596  eV     1   --> A_2  D_2  S_2  
     e(  9 -  9) =     -5.59864  eV     1   --> A_1  D_1  S_1  
     e( 10 - 10) =      5.15632  eV     1   --> A_1  D_1  S_1  
     e( 11 - 12) =      6.29812  eV     2   --> B_1  D_3  S_3  
     e( 11 - 12) =      6.29812  eV     2   --> B_2  D_4  S_4  
     e( 13 - 13) =      8.27021  eV     1   --> A_1  D_1  S_1  
     e( 14 - 14) =      9.98694  eV     1   --> A_1  D_1  S_1  
     e( 15 - 16) =     10.90084  eV     2   --> B_1  D_3  S_3  
     e( 15 - 16) =     10.90084  eV     2   --> B_2  D_4  S_4  

 **************************************************************************

 **************************************************************************

                    xk=(   0.00000,  -0.14142,   0.00000  )

     Band symmetry, C_2v (mm2)  point group:

     e(  1 -  3) =    -87.58496  eV     3   --> A_1  D_1  S_1  
     e(  1 -  3) =    -87.58496  eV     3   --> B_1  D_3  S_3  
     e(  1 -  3) =    -87.58496  eV     3   --> B_2  D_4  S_4  
     e(  4 -  4) =     -8.00659  eV     1   --> A_1  D_1  S_1  
     e(  5 -  6) =     -7.99118  eV     2   --> B_1  D_3  S_3  
     e(  5 -  6) =     -7.99118  eV     2   --> B_2  D_4  S_4  
     e(  7 -  7) =     -7.92841  eV     1   --> A_1  D_1  S_1  
     e(  8 -  8) =     -7.92579  eV     1   --> A_2  D_2  S_2  
     e(  9 -  9) =     -5.57556  eV     1   --> A_1  D_1  S_1  
     e( 10 - 10) =      5.01554  eV     1   --> A_1  D_1  S_1  
     e( 11 - 12) =      6.23980  eV     2   --> B_1  D_3  S_3  
     e( 11 - 12) =      6.23980  eV     2   --> B_2  D_4  S_4  
     e( 13 - 13) =      8.39753  eV     1   --> A_1  D_1  S_1  
     e( 14 - 14) =      9.92841  eV     1   --> A_1  D_1  S_1  
     e( 15 - 16) =     10.98903  eV     2   --> B_1  D_3  S_3  
     e( 15 - 16) =     10.98903  eV     2   --> B_2  D_4  S_4  

 **************************************************************************

 **************************************************************************

                    xk=(   0.00000,  -0.15321,   0.00000  )

     Band symmetry, C_2v (mm2)  point group:

     e(  1 -  3) =    -87.58496  eV     3   --> A_1  D_1  S_1  
     e(  1 -  3) =    -87.58496  eV     3   --> B_1  D_3  S_3  
     e(  1 -  3) =    -87.58496  eV     3   --> B_2  D_4  S_4  
     e(  4 -  4) =     -8.00844  eV     1   --> A_1  D_1  S_1  
     e(  5 -  6) =     -7.99053  eV     2   --> B_1  D_3  S_3  
     e(  5 -  6) =     -7.99053  eV     2   --> B_2  D_4  S_4  
     e(  7 -  7) =     -7.92868  eV     1   --> A_1  D_1  S_1  
     e(  8 -  8) =     -7.92561  eV     1   --> A_2  D_2  S_2  
     e(  9 -  9) =     -5.55055  eV     1   --> A_1  D_1  S_1  
     e( 10 - 10) =      4.87527  eV     1   --> A_1  D_1  S_1  
     e( 11 - 12) =      6.17923  eV     2   --> B_1  D_3  S_3  
     e( 11 - 12) =      6.17923  eV     2   --> B_2  D_4  S_4  
     e( 13 - 13) =      8.52039  eV     1   --> A_1  D_1  S_1  
     e( 14 - 14) =      9.86985  eV     1   --> A_1  D_1  S_1  
     e( 15 - 16) =     11.08200  eV     2   --> B_1  D_3  S_3  
     e( 15 - 16) =     11.08200  eV     2   --> B_2  D_4  S_4  

 **************************************************************************

 **************************************************************************

                    xk=(   0.00000,  -0.16499,   0.00000  )

     Band symmetry, C_2v (mm2)  point group:

     e(  1 -  3) =    -87.58488  eV     3   --> A_1  D_1  S_1  
     e(  1 -  3) =    -87.58488  eV     3   --> B_1  D_3  S_3  
     e(  1 -  3) =    -87.58488  eV     3   --> B_2  D_4  S_4  
     e(  4 -  4) =     -8.01038  eV     1   --> A_1  D_1  S_1  
     e(  5 -  6) =     -7.98982  eV     2   --> B_1  D_3  S_3  
     e(  5 -  6) =     -7.98982  eV     2   --> B_2  D_4  S_4  
     e(  7 -  7) =     -7.92896  eV     1   --> A_1  D_1  S_1  
     e(  8 -  8) =     -7.92542  eV     1   --> A_2  D_2  S_2  
     e(  9 -  9) =     -5.52364  eV     1   --> A_1  D_1  S_1  
     e( 10 - 10) =      4.73556  eV     1   --> A_1  D_1  S_1  
     e( 11 - 12) =      6.11682  eV     2   --> B_1  D_3  S_3  
     e( 11 - 12) =      6.11682  eV     2   --> B_2  D_4  S_4  
     e( 13 - 13) =      8.63762  eV     1   --> A_1  D_1  S_1  
     e( 14 - 14) =      9.81245  eV     1   --> A_1  D_1  S_1  
     e( 15 - 16) =     11.17936  eV     2   --> B_1  D_3  S_3  
     e( 15 - 16) =     11.17936  eV     2   --> B_2  D_4  S_4  

 **************************************************************************

 **************************************************************************

                    xk=(   0.00000,  -0.17678,   0.00000  )

     Band symmetry, C_2v (mm2)  point group:

     e(  1 -  3) =    -87.58497  eV     3   --> A_1  D_1  S_1  
     e(  1 -  3) =    -87.58497  eV     3   --> B_1  D_3  S_3  
     e(  1 -  3) =    -87.58497  eV     3   --> B_2  D_4  S_4  
     e(  4 -  4) =     -8.01244  eV     1   --> A_1  D_1  S_1  
     e(  5 -  6) =     -7.98911  eV     2   --> B_1  D_3  S_3  
     e(  5 -  6) =     -7.98911  eV     2   --> B_2  D_4  S_4  
     e(  7 -  7) =     -7.92928  eV     1   --> A_1  D_1  S_1  
     e(  8 -  8) =     -7.92521  eV     1   --> A_2  D_2  S_2  
     e(  9 -  9) =     -5.49485  eV     1   --> A_1  D_1  S_1  
     e( 10 - 10) =      4.59642  eV     1   --> A_1  D_1  S_1  
     e( 11 - 12) =      6.05291  eV     2   --> B_1  D_3  S_3  
     e( 11 - 12) =      6.05291  eV     2   --> B_2  D_4  S_4  
     e( 13 - 13) =      8.74752  eV     1   --> A_1  D_1  S_1  
     e( 14 - 14) =      9.75771  eV     1   --> A_1  D_1  S_1  
     e( 15 - 16) =     11.28071  eV     2   --> B_1  D_3  S_3  
     e( 15 - 16) =     11.28071  eV     2   --> B_2  D_4  S_4  

 **************************************************************************

 **************************************************************************

                    xk=(   0.00000,  -0.18856,   0.00000  )

     Band symmetry, C_2v (mm2)  point group:

     e(  1 -  2) =    -87.58493  eV     2   --> B_1  D_3  S_3  
     e(  1 -  2) =    -87.58493  eV     2   --> B_2  D_4  S_4  
     e(  3 -  3) =    -87.58473  eV     1   --> A_1  D_1  S_1  
     e(  4 -  4) =     -8.01456  eV     1   --> A_1  D_1  S_1  
     e(  5 -  6) =     -7.98831  eV     2   --> B_1  D_3  S_3  
     e(  5 -  6) =     -7.98831  eV     2   --> B_2  D_4  S_4  
     e(  7 -  7) =     -7.92960  eV     1   --> A_1  D_1  S_1  
     e(  8 -  8) =     -7.92499  eV     1   --> A_2  D_2  S_2  
     e(  9 -  9) =     -5.46420  eV     1   --> A_1  D_1  S_1  
     e( 10 - 10) =      4.45788  eV     1   --> A_1  D_1  S_1  
     e( 11 - 12) =      5.98787  eV     2   --> B_1  D_3  S_3  
     e( 11 - 12) =      5.98787  eV     2   --> B_2  D_4  S_4  
     e( 13 - 13) =      8.84777  eV     1   --> A_1  D_1  S_1  
     e( 14 - 14) =      9.70778  eV     1   --> A_1  D_1  S_1  
     e( 15 - 16) =     11.38571  eV     2   --> B_1  D_3  S_3  
     e( 15 - 16) =     11.38571  eV     2   --> B_2  D_4  S_4  

 **************************************************************************

 **************************************************************************

                    xk=(   0.00000,  -0.20035,   0.00000  )

     Band symmetry, C_2v (mm2)  point group:

     e(  1 -  2) =    -87.58493  eV     2   --> B_1  D_3  S_3  
     e(  1 -  2) =    -87.58493  eV     2   --> B_2  D_4  S_4  
     e(  3 -  3) =    -87.58473  eV     1   --> A_1  D_1  S_1  
     e(  4 -  4) =     -8.01676  eV     1   --> A_1  D_1  S_1  
     e(  5 -  6) =     -7.98750  eV     2   --> B_1  D_3  S_3  
     e(  5 -  6) =     -7.98750  eV     2   --> B_2  D_4  S_4  
     e(  7 -  7) =     -7.92996  eV     1   --> A_1  D_1  S_1  
     e(  8 -  8) =     -7.92477  eV     1   --> A_2  D_2  S_2  
     e(  9 -  9) =     -5.43172  eV     1   --> A_1  D_1  S_1  
     e( 10 - 10) =      4.31998  eV     1   --> A_1  D_1  S_1  
     e( 11 - 12) =      5.92198  eV     2   --> B_1  D_3  S_3  
     e( 11 - 12) =      5.92198  eV     2   --> B_2  D_4  S_4  
     e( 13 - 13) =      8.93493  eV     1   --> A_1  D_1  S_1  
     e( 14 - 14) =      9.66568  eV     1   --> A_1  D_1  S_1  
     e( 15 - 16) =     11.49403  eV     2   --> B_1  D_3  S_3  
     e( 15 - 16) =     11.49403  eV     2   --> B_2  D_4  S_4  

 **************************************************************************

 **************************************************************************

                    xk=(   0.00000,  -0.21213,   0.00000  )

     Band symmetry, C_2v (mm2)  point group:

     e(  1 -  2) =    -87.58484  eV     2   --> B_1  D_3  S_3  
     e(  1 -  2) =    -87.58484  eV     2   --> B_2  D_4  S_4  
     e(  3 -  3) =    -87.58464  eV     1   --> A_1  D_1  S_1  
     e(  4 -  4) =     -8.01901  eV     1   --> A_1  D_1  S_1  
     e(  5 -  6) =     -7.98663  eV     2   --> B_1  D_3  S_3  
     e(  5 -  6) =     -7.98663  eV     2   --> B_2  D_4  S_4  
     e(  7 -  7) =     -7.93035  eV     1   --> A_1  D_1  S_1  
     e(  8 -  8) =     -7.92452  eV     1   --> A_2  D_2  S_2  
     e(  9 -  9) =     -5.39744  eV     1   --> A_1  D_1  S_1  
     e( 10 - 10) =      4.18273  eV     1   --> A_1  D_1  S_1  
     e( 11 - 12) =      5.85555  eV     2   --> B_1  D_3  S_3  
     e( 11 - 12) =      5.85555  eV     2   --> B_2  D_4  S_4  
     e( 13 - 13) =      9.00428  eV     1   --> A_1  D_1  S_1  
     e( 14 - 14) =      9.63568  eV     1   --> A_1  D_1  S_1  
     e( 15 - 16) =     11.60539  eV     2   --> B_1  D_3  S_3  
     e( 15 - 16) =     11.60539  eV     2   --> B_2  D_4  S_4  

 **************************************************************************

 **************************************************************************

                    xk=(   0.00000,  -0.22392,   0.00000  )

     Band symmetry, C_2v (mm2)  point group:

     e(  1 -  2) =    -87.58484  eV     2   --> B_1  D_3  S_3  
     e(  1 -  2) =    -87.58484  eV     2   --> B_2  D_4  S_4  
     e(  3 -  3) =    -87.58463  eV     1   --> A_1  D_1  S_1  
     e(  4 -  4) =     -8.02133  eV     1   --> A_1  D_1  S_1  
     e(  5 -  6) =     -7.98575  eV     2   --> B_1  D_3  S_3  
     e(  5 -  6) =     -7.98575  eV     2   --> B_2  D_4  S_4  
     e(  7 -  7) =     -7.93076  eV     1   --> A_1  D_1  S_1  
     e(  8 -  8) =     -7.92427  eV     1   --> A_2  D_2  S_2  
     e(  9 -  9) =     -5.36139  eV     1   --> A_1  D_1  S_1  
     e( 10 - 10) =      4.04616  eV     1   --> A_1  D_1  S_1  
     e( 11 - 12) =      5.78880  eV     2   --> B_1  D_3  S_3  
     e( 11 - 12) =      5.78880  eV     2   --> B_2  D_4  S_4  
     e( 13 - 13) =      9.05047  eV     1   --> A_1  D_1  S_1  
     e( 14 - 14) =      9.62256  eV     1   --> A_1  D_1  S_1  
     e( 15 - 16) =     11.71951  eV     2   --> B_1  D_3  S_3  
     e( 15 - 16) =     11.71951  eV     2   --> B_2  D_4  S_4  

 **************************************************************************

 **************************************************************************

                    xk=(   0.00000,  -0.23570,   0.00000  )

     Band symmetry, C_2v (mm2)  point group:

     e(  1 -  2) =    -87.58484  eV     2   --> B_1  D_3  S_3  
     e(  1 -  2) =    -87.58484  eV     2   --> B_2  D_4  S_4  
     e(  3 -  3) =    -87.58463  eV     1   --> A_1  D_1  S_1  
     e(  4 -  4) =     -8.02370  eV     1   --> A_1  D_1  S_1  
     e(  5 -  6) =     -7.98483  eV     2   --> B_1  D_3  S_3  
     e(  5 -  6) =     -7.98483  eV     2   --> B_2  D_4  S_4  
     e(  7 -  7) =     -7.93118  eV     1   --> A_1  D_1  S_1  
     e(  8 -  8) =     -7.92402  eV     1   --> A_2  D_2  S_2  
     e(  9 -  9) =     -5.32359  eV     1   --> A_1  D_1  S_1  
     e( 10 - 10) =      3.91030  eV     1   --> A_1  D_1  S_1  
     e( 11 - 12) =      5.72196  eV     2   --> B_1  D_3  S_3  
     e( 11 - 12) =      5.72196  eV     2   --> B_2  D_4  S_4  
     e( 13 - 13) =      9.07013  eV     1   --> A_1  D_1  S_1  
     e( 14 - 14) =      9.62902  eV     1   --> A_1  D_1  S_1  
     e( 15 - 16) =     11.83615  eV     2   --> B_1  D_3  S_3  
     e( 15 - 16) =     11.83615  eV     2   --> B_2  D_4  S_4  

 **************************************************************************

 **************************************************************************

                    xk=(   0.00000,  -0.24749,   0.00000  )

     Band symmetry, C_2v (mm2)  point group:

     e(  1 -  2) =    -87.58490  eV     2   --> B_1  D_3  S_3  
     e(  1 -  2) =    -87.58490  eV     2   --> B_2  D_4  S_4  
     e(  3 -  3) =    -87.58466  eV     1   --> A_1  D_1  S_1  
     e(  4 -  4) =     -8.02613  eV     1   --> A_1  D_1  S_1  
     e(  5 -  6) =     -7.98389  eV     2   --> B_1  D_3  S_3  
     e(  5 -  6) =     -7.98389  eV     2   --> B_2  D_4  S_4  
     e(  7 -  7) =     -7.93163  eV     1   --> A_1  D_1  S_1  
     e(  8 -  8) =     -7.92375  eV     1   --> A_2  D_2  S_2  
     e(  9 -  9) =     -5.28409  eV     1   --> A_1  D_1  S_1  
     e( 10 - 10) =      3.77516  eV     1   --> A_1  D_1  S_1  
     e( 11 - 12) =      5.65524  eV     2   --> B_1  D_3  S_3  
     e( 11 - 12) =      5.65524  eV     2   --> B_2  D_4  S_4  
     e( 13 - 13) =      9.06502  eV     1   --> A_1  D_1  S_1  
     e( 14 - 14) =      9.65261  eV     1   --> A_1  D_1  S_1  
     e( 15 - 16) =     11.95509  eV     2   --> B_1  D_3  S_3  
     e( 15 - 16) =     11.95509  eV     2   --> B_2  D_4  S_4  

 **************************************************************************

 **************************************************************************

                    xk=(   0.00000,  -0.25927,   0.00000  )

     Band symmetry, C_2v (mm2)  point group:

     e(  1 -  2) =    -87.58490  eV     2   --> B_1  D_3  S_3  
     e(  1 -  2) =    -87.58490  eV     2   --> B_2  D_4  S_4  
     e(  3 -  3) =    -87.58466  eV     1   --> A_1  D_1  S_1  
     e(  4 -  4) =     -8.02857  eV     1   --> A_1  D_1  S_1  
     e(  5 -  6) =     -7.98292  eV     2   --> B_1  D_3  S_3  
     e(  5 -  6) =     -7.98292  eV     2   --> B_2  D_4  S_4  
     e(  7 -  7) =     -7.93210  eV     1   --> A_1  D_1  S_1  
     e(  8 -  8) =     -7.92348  eV     1   --> A_2  D_2  S_2  
     e(  9 -  9) =     -5.24290  eV     1   --> A_1  D_1  S_1  
     e( 10 - 10) =      3.64079  eV     1   --> A_1  D_1  S_1  
     e( 11 - 12) =      5.58884  eV     2   --> B_1  D_3  S_3  
     e( 11 - 12) =      5.58884  eV     2   --> B_2  D_4  S_4  
     e( 13 - 13) =      9.04116  eV     1   --> A_1  D_1  S_1  
     e( 14 - 14) =      9.68658  eV     1   --> A_1  D_1  S_1  
     e( 15 - 16) =     12.07614  eV     2   --> B_1  D_3  S_3  
     e( 15 - 16) =     12.07614  eV     2   --> B_2  D_4  S_4  

 **************************************************************************

 **************************************************************************

                    xk=(   0.00000,  -0.27106,   0.00000  )

     Band symmetry, C_2v (mm2)  point group:

     e(  1 -  2) =    -87.58490  eV     2   --> B_1  D_3  S_3  
     e(  1 -  2) =    -87.58490  eV     2   --> B_2  D_4  S_4  
     e(  3 -  3) =    -87.58466  eV     1   --> A_1  D_1  S_1  
     e(  4 -  4) =     -8.03103  eV     1   --> A_1  D_1  S_1  
     e(  5 -  6) =     -7.98192  eV     2   --> B_1  D_3  S_3  
     e(  5 -  6) =     -7.98192  eV     2   --> B_2  D_4  S_4  
     e(  7 -  7) =     -7.93258  eV     1   --> A_1  D_1  S_1  
     e(  8 -  8) =     -7.92321  eV     1   --> A_2  D_2  S_2  
     e(  9 -  9) =     -5.20009  eV     1   --> A_1  D_1  S_1  
     e( 10 - 10) =      3.50722  eV     1   --> A_1  D_1  S_1  
     e( 11 - 12) =      5.52292  eV     2   --> B_1  D_3  S_3  
     e( 11 - 12) =      5.52292  eV     2   --> B_2  D_4  S_4  
     e( 13 - 13) =      9.00513  eV     1   --> A_1  D_1  S_1  
     e( 14 - 14) =      9.72367  eV     1   --> A_1  D_1  S_1  
     e( 15 - 16) =     12.19911  eV     2   --> B_1  D_3  S_3  
     e( 15 - 16) =     12.19911  eV     2   --> B_2  D_4  S_4  

 **************************************************************************

 **************************************************************************

                    xk=(   0.00000,  -0.28284,   0.00000  )

     Band symmetry, C_2v (mm2)  point group:

     e(  1 -  2) =    -87.58490  eV     2   --> B_1  D_3  S_3  
     e(  1 -  2) =    -87.58490  eV     2   --> B_2  D_4  S_4  
     e(  3 -  3) =    -87.58467  eV     1   --> A_1  D_1  S_1  
     e(  4 -  4) =     -8.03352  eV     1   --> A_1  D_1  S_1  
     e(  5 -  6) =     -7.98090  eV     2   --> B_1  D_3  S_3  
     e(  5 -  6) =     -7.98090  eV     2   --> B_2  D_4  S_4  
     e(  7 -  7) =     -7.93307  eV     1   --> A_1  D_1  S_1  
     e(  8 -  8) =     -7.92293  eV     1   --> A_2  D_2  S_2  
     e(  9 -  9) =     -5.15567  eV     1   --> A_1  D_1  S_1  
     e( 10 - 10) =      3.37447  eV     1   --> A_1  D_1  S_1  
     e( 11 - 12) =      5.45763  eV     2   --> B_1  D_3  S_3  
     e( 11 - 12) =      5.45763  eV     2   --> B_2  D_4  S_4  
     e( 13 - 13) =      8.96187  eV     1   --> A_1  D_1  S_1  
     e( 14 - 14) =      9.75834  eV     1   --> A_1  D_1  S_1  
     e( 15 - 16) =     12.32382  eV     2   --> B_1  D_3  S_3  
     e( 15 - 16) =     12.32382  eV     2   --> B_2  D_4  S_4  

 **************************************************************************

 **************************************************************************

                    xk=(   0.00000,  -0.29463,   0.00000  )

     Band symmetry, C_2v (mm2)  point group:

     e(  1 -  2) =    -87.58490  eV     2   --> B_1  D_3  S_3  
     e(  1 -  2) =    -87.58490  eV     2   --> B_2  D_4  S_4  
     e(  3 -  3) =    -87.58467  eV     1   --> A_1  D_1  S_1  
     e(  4 -  4) =     -8.03601  eV     1   --> A_1  D_1  S_1  
     e(  5 -  6) =     -7.97986  eV     2   --> B_1  D_3  S_3  
     e(  5 -  6) =     -7.97986  eV     2   --> B_2  D_4  S_4  
     e(  7 -  7) =     -7.93359  eV     1   --> A_1  D_1  S_1  
     e(  8 -  8) =     -7.92264  eV     1   --> A_2  D_2  S_2  
     e(  9 -  9) =     -5.10970  eV     1   --> A_1  D_1  S_1  
     e( 10 - 10) =      3.24258  eV     1   --> A_1  D_1  S_1  
     e( 11 - 12) =      5.39311  eV     2   --> B_1  D_3  S_3  
     e( 11 - 12) =      5.39311  eV     2   --> B_2  D_4  S_4  
     e( 13 - 13) =      8.91459  eV     1   --> A_1  D_1  S_1  
     e( 14 - 14) =      9.78697  eV     1   --> A_1  D_1  S_1  
     e( 15 - 16) =     12.45014  eV     2   --> B_1  D_3  S_3  
     e( 15 - 16) =     12.45014  eV     2   --> B_2  D_4  S_4  

 **************************************************************************

 **************************************************************************

                    xk=(   0.00000,  -0.30641,   0.00000  )

     Band symmetry, C_2v (mm2)  point group:

     e(  1 -  2) =    -87.58473  eV     2   --> B_1  D_3  S_3  
     e(  1 -  2) =    -87.58473  eV     2   --> B_2  D_4  S_4  
     e(  3 -  3) =    -87.58461  eV     1   --> A_1  D_1  S_1  
     e(  4 -  4) =     -8.03847  eV     1   --> A_1  D_1  S_1  
     e(  5 -  6) =     -7.97878  eV     2   --> B_1  D_3  S_3  
     e(  5 -  6) =     -7.97878  eV     2   --> B_2  D_4  S_4  
     e(  7 -  7) =     -7.93410  eV     1   --> A_1  D_1  S_1  
     e(  8 -  8) =     -7.92232  eV     1   --> A_2  D_2  S_2  
     e(  9 -  9) =     -5.06223  eV     1   --> A_1  D_1  S_1  
     e( 10 - 10) =      3.11160  eV     1   --> A_1  D_1  S_1  
     e( 11 - 12) =      5.32950  eV     2   --> B_1  D_3  S_3  
     e( 11 - 12) =      5.32950  eV     2   --> B_2  D_4  S_4  
     e( 13 - 13) =      8.86531  eV     1   --> A_1  D_1  S_1  
     e( 14 - 14) =      9.80734  eV     1   --> A_1  D_1  S_1  
     e( 15 - 16) =     12.57792  eV     2   --> B_1  D_3  S_3  
     e( 15 - 16) =     12.57792  eV     2   --> B_2  D_4  S_4  

 **************************************************************************

 **************************************************************************

                    xk=(   0.00000,  -0.31820,   0.00000  )

     Band symmetry, C_2v (mm2)  point group:

     e(  1 -  3) =    -87.58463  eV     3   --> A_1  D_1  S_1  
     e(  1 -  3) =    -87.58463  eV     3   --> B_1  D_3  S_3  
     e(  1 -  3) =    -87.58463  eV     3   --> B_2  D_4  S_4  
     e(  4 -  4) =     -8.04094  eV     1   --> A_1  D_1  S_1  
     e(  5 -  6) =     -7.97769  eV     2   --> B_1  D_3  S_3  
     e(  5 -  6) =     -7.97769  eV     2   --> B_2  D_4  S_4  
     e(  7 -  7) =     -7.93463  eV     1   --> A_1  D_1  S_1  
     e(  8 -  8) =     -7.92200  eV     1   --> A_2  D_2  S_2  
     e(  9 -  9) =     -5.01329  eV     1   --> A_1  D_1  S_1  
     e( 10 - 10) =      2.98156  eV     1   --> A_1  D_1  S_1  
     e( 11 - 12) =      5.26690  eV     2   --> B_1  D_3  S_3  
     e( 11 - 12) =      5.26690  eV     2   --> B_2  D_4  S_4  
     e( 13 - 13) =      8.81528  eV     1   --> A_1  D_1  S_1  
     e( 14 - 14) =      9.81823  eV     1   --> A_1  D_1  S_1  
     e( 15 - 16) =     12.70702  eV     2   --> B_1  D_3  S_3  
     e( 15 - 16) =     12.70702  eV     2   --> B_2  D_4  S_4  

 **************************************************************************

 **************************************************************************

                    xk=(   0.00000,  -0.32998,   0.00000  )

     Band symmetry, C_2v (mm2)  point group:

     e(  1 -  3) =    -87.58462  eV     3   --> A_1  D_1  S_1  
     e(  1 -  3) =    -87.58462  eV     3   --> B_1  D_3  S_3  
     e(  1 -  3) =    -87.58462  eV     3   --> B_2  D_4  S_4  
     e(  4 -  4) =     -8.04342  eV     1   --> A_1  D_1  S_1  
     e(  5 -  6) =     -7.97660  eV     2   --> B_1  D_3  S_3  
     e(  5 -  6) =     -7.97660  eV     2   --> B_2  D_4  S_4  
     e(  7 -  7) =     -7.93518  eV     1   --> A_1  D_1  S_1  
     e(  8 -  8) =     -7.92171  eV     1   --> A_2  D_2  S_2  
     e(  9 -  9) =     -4.96295  eV     1   --> A_1  D_1  S_1  
     e( 10 - 10) =      2.85250  eV     1   --> A_1  D_1  S_1  
     e( 11 - 12) =      5.20539  eV     2   --> B_1  D_3  S_3  
     e( 11 - 12) =      5.20539  eV     2   --> B_2  D_4  S_4  
     e( 13 - 13) =      8.76536  eV     1   --> A_1  D_1  S_1  
     e( 14 - 14) =      9.81914  eV     1   --> A_1  D_1  S_1  
     e( 15 - 16) =     12.83732  eV     2   --> B_1  D_3  S_3  
     e( 15 - 16) =     12.83732  eV     2   --> B_2  D_4  S_4  

 **************************************************************************

 **************************************************************************

                    xk=(   0.00000,  -0.34177,   0.00000  )

     Band symmetry, C_2v (mm2)  point group:

     e(  1 -  3) =    -87.58462  eV     3   --> A_1  D_1  S_1  
     e(  1 -  3) =    -87.58462  eV     3   --> B_1  D_3  S_3  
     e(  1 -  3) =    -87.58462  eV     3   --> B_2  D_4  S_4  
     e(  4 -  4) =     -8.04588  eV     1   --> A_1  D_1  S_1  
     e(  5 -  6) =     -7.97551  eV     2   --> B_1  D_3  S_3  
[...]
     e(  5 -  5) =     -7.99131  eV     1   --> A''            
     e(  6 -  6) =     -7.98903  eV     1   --> A'             
     e(  7 -  7) =     -7.92805  eV     1   --> A''            
     e(  8 -  8) =     -7.92607  eV     1   --> A'             
     e(  9 -  9) =     -5.46827  eV     1   --> A'             
     e( 10 - 10) =      4.29876  eV     1   --> A'             
     e( 11 - 11) =      5.88336  eV     1   --> A'             
     e( 12 - 12) =      6.51830  eV     1   --> A''            
     e( 13 - 13) =      8.41836  eV     1   --> A'             
     e( 14 - 14) =     10.48720  eV     1   --> A'             
     e( 15 - 15) =     10.63834  eV     1   --> A''            
     e( 16 - 16) =     11.43728  eV     1   --> A'             

 **************************************************************************

 **************************************************************************

                    xk=(  -0.58336,  -0.70711,   0.58336  )

     Band symmetry, C_s (m)     point group:

     e(  1 -  2) =    -87.58505  eV     2   --> A'             
     e(  1 -  2) =    -87.58505  eV     2   --> A''            
     e(  3 -  3) =    -87.58484  eV     1   --> A'             
     e(  4 -  4) =     -8.00958  eV     1   --> A'             
     e(  5 -  5) =     -7.99178  eV     1   --> A''            
     e(  6 -  6) =     -7.98971  eV     1   --> A'             
     e(  7 -  7) =     -7.92795  eV     1   --> A''            
     e(  8 -  8) =     -7.92618  eV     1   --> A'             
     e(  9 -  9) =     -5.50023  eV     1   --> A'             
     e( 10 - 10) =      4.45771  eV     1   --> A'             
     e( 11 - 11) =      5.97285  eV     1   --> A'             
     e( 12 - 12) =      6.53753  eV     1   --> A''            
     e( 13 - 13) =      8.34691  eV     1   --> A'             
     e( 14 - 14) =     10.46170  eV     1   --> A'             
     e( 15 - 15) =     10.60535  eV     1   --> A''            
     e( 16 - 16) =     11.32589  eV     1   --> A'             

 **************************************************************************

 **************************************************************************

                    xk=(  -0.59220,  -0.70711,   0.59220  )

     Band symmetry, C_s (m)     point group:

     e(  1 -  3) =    -87.58498  eV     3   -->   2 A'             
     e(  1 -  3) =    -87.58498  eV     3   --> A''            
     e(  4 -  4) =     -8.00777  eV     1   --> A'             
     e(  5 -  5) =     -7.99222  eV     1   --> A''            
     e(  6 -  6) =     -7.99037  eV     1   --> A'             
     e(  7 -  7) =     -7.92781  eV     1   --> A''            
     e(  8 -  8) =     -7.92627  eV     1   --> A'             
     e(  9 -  9) =     -5.53016  eV     1   --> A'             
     e( 10 - 10) =      4.61818  eV     1   --> A'             
     e( 11 - 11) =      6.05874  eV     1   --> A'             
     e( 12 - 12) =      6.55517  eV     1   --> A''            
     e( 13 - 13) =      8.27083  eV     1   --> A'             
     e( 14 - 14) =     10.43999  eV     1   --> A'             
     e( 15 - 15) =     10.57465  eV     1   --> A''            
     e( 16 - 16) =     11.21465  eV     1   --> A'             

 **************************************************************************

 **************************************************************************

                    xk=(  -0.60104,  -0.70711,   0.60104  )

     Band symmetry, C_s (m)     point group:

     e(  1 -  3) =    -87.58498  eV     3   -->   2 A'             
     e(  1 -  3) =    -87.58498  eV     3   --> A''            
     e(  4 -  4) =     -8.00604  eV     1   --> A'             
     e(  5 -  5) =     -7.99263  eV     1   --> A''            
     e(  6 -  6) =     -7.99099  eV     1   --> A'             
     e(  7 -  7) =     -7.92769  eV     1   --> A''            
     e(  8 -  8) =     -7.92636  eV     1   --> A'             
     e(  9 -  9) =     -5.55803  eV     1   --> A'             
     e( 10 - 10) =      4.77997  eV     1   --> A'             
     e( 11 - 11) =      6.14056  eV     1   --> A'             
     e( 12 - 12) =      6.57123  eV     1   --> A''            
     e( 13 - 13) =      8.18965  eV     1   --> A'             
     e( 14 - 14) =     10.42196  eV     1   --> A'             
     e( 15 - 15) =     10.54623  eV     1   --> A''            
     e( 16 - 16) =     11.10539  eV     1   --> A'             

 **************************************************************************

 **************************************************************************

                    xk=(  -0.60988,  -0.70711,   0.60988  )

     Band symmetry, C_s (m)     point group:

     e(  1 -  3) =    -87.58494  eV     3   -->   2 A'             
     e(  1 -  3) =    -87.58494  eV     3   --> A''            
     e(  4 -  4) =     -8.00440  eV     1   --> A'             
     e(  5 -  5) =     -7.99301  eV     1   --> A''            
     e(  6 -  6) =     -7.99158  eV     1   --> A'             
     e(  7 -  7) =     -7.92756  eV     1   --> A''            
     e(  8 -  8) =     -7.92643  eV     1   --> A'             
     e(  9 -  9) =     -5.58380  eV     1   --> A'             
     e( 10 - 10) =      4.94290  eV     1   --> A'             
     e( 11 - 11) =      6.21784  eV     1   --> A'             
     e( 12 - 12) =      6.58579  eV     1   --> A''            
     e( 13 - 13) =      8.10287  eV     1   --> A'             
     e( 14 - 14) =     10.40745  eV     1   --> A'             
     e( 15 - 15) =     10.52010  eV     1   --> A''            
     e( 16 - 16) =     10.99982  eV     1   --> A'             

 **************************************************************************

 **************************************************************************

                    xk=(  -0.61872,  -0.70711,   0.61872  )

     Band symmetry, C_s (m)     point group:

     e(  1 -  3) =    -87.58501  eV     3   -->   2 A'             
     e(  1 -  3) =    -87.58501  eV     3   --> A''            
     e(  4 -  4) =     -8.00288  eV     1   --> A'             
     e(  5 -  5) =     -7.99336  eV     1   --> A''            
     e(  6 -  6) =     -7.99216  eV     1   --> A'             
     e(  7 -  7) =     -7.92746  eV     1   --> A''            
     e(  8 -  8) =     -7.92652  eV     1   --> A'             
     e(  9 -  9) =     -5.60743  eV     1   --> A'             
     e( 10 - 10) =      5.10672  eV     1   --> A'             
     e( 11 - 11) =      6.29014  eV     1   --> A'             
     e( 12 - 12) =      6.59887  eV     1   --> A''            
     e( 13 - 13) =      8.01007  eV     1   --> A'             
     e( 14 - 14) =     10.39624  eV     1   --> A'             
     e( 15 - 15) =     10.49624  eV     1   --> A''            
     e( 16 - 16) =     10.89947  eV     1   --> A'             

 **************************************************************************

 **************************************************************************

                    xk=(  -0.62756,  -0.70711,   0.62756  )

     Band symmetry, C_s (m)     point group:

     e(  1 -  3) =    -87.58495  eV     3   -->   2 A'             
     e(  1 -  3) =    -87.58495  eV     3   --> A''            
     e(  4 -  4) =     -8.00145  eV     1   --> A'             
     e(  5 -  5) =     -7.99367  eV     1   --> A''            
     e(  6 -  6) =     -7.99267  eV     1   --> A'             
     e(  7 -  7) =     -7.92736  eV     1   --> A''            
     e(  8 -  8) =     -7.92658  eV     1   --> A'             
     e(  9 -  9) =     -5.62889  eV     1   --> A'             
     e( 10 - 10) =      5.27121  eV     1   --> A'             
     e( 11 - 11) =      6.35702  eV     1   --> A'             
     e( 12 - 12) =      6.61054  eV     1   --> A''            
     e( 13 - 13) =      7.91093  eV     1   --> A'             
     e( 14 - 14) =     10.38807  eV     1   --> A'             
     e( 15 - 15) =     10.47465  eV     1   --> A''            
     e( 16 - 16) =     10.80570  eV     1   --> A'             

 **************************************************************************

 **************************************************************************

                    xk=(  -0.63640,  -0.70711,   0.63640  )

     Band symmetry, C_s (m)     point group:

     e(  1 -  3) =    -87.58495  eV     3   -->   2 A'             
     e(  1 -  3) =    -87.58495  eV     3   --> A''            
     e(  4 -  4) =     -8.00016  eV     1   --> A'             
     e(  5 -  5) =     -7.99396  eV     1   --> A''            
     e(  6 -  6) =     -7.99315  eV     1   --> A'             
     e(  7 -  7) =     -7.92726  eV     1   --> A''            
     e(  8 -  8) =     -7.92665  eV     1   --> A'             
     e(  9 -  9) =     -5.64817  eV     1   --> A'             
     e( 10 - 10) =      5.43609  eV     1   --> A'             
     e( 11 - 11) =      6.41807  eV     1   --> A'             
     e( 12 - 12) =      6.62083  eV     1   --> A''            
     e( 13 - 13) =      7.80522  eV     1   --> A'             
     e( 14 - 14) =     10.38258  eV     1   --> A'             
     e( 15 - 15) =     10.45535  eV     1   --> A''            
     e( 16 - 16) =     10.71964  eV     1   --> A'             

 **************************************************************************

 **************************************************************************

                    xk=(  -0.64523,  -0.70711,   0.64523  )

     Band symmetry, C_s (m)     point group:

     e(  1 -  3) =    -87.58494  eV     3   -->   2 A'             
     e(  1 -  3) =    -87.58494  eV     3   --> A''            
     e(  4 -  4) =     -7.99899  eV     1   --> A'             
     e(  5 -  5) =     -7.99419  eV     1   --> A''            
     e(  6 -  6) =     -7.99358  eV     1   --> A'             
     e(  7 -  7) =     -7.92718  eV     1   --> A''            
     e(  8 -  8) =     -7.92668  eV     1   --> A'             
     e(  9 -  9) =     -5.66523  eV     1   --> A'             
     e( 10 - 10) =      5.60104  eV     1   --> A'             
     e( 11 - 11) =      6.47288  eV     1   --> A'             
     e( 12 - 12) =      6.62980  eV     1   --> A''            
     e( 13 - 13) =      7.69286  eV     1   --> A'             
     e( 14 - 14) =     10.37940  eV     1   --> A'             
     e( 15 - 15) =     10.43831  eV     1   --> A''            
     e( 16 - 16) =     10.64226  eV     1   --> A'             

 **************************************************************************

 **************************************************************************

                    xk=(  -0.65407,  -0.70711,   0.65407  )

     Band symmetry, C_s (m)     point group:

     e(  1 -  3) =    -87.58494  eV     3   -->   2 A'             
     e(  1 -  3) =    -87.58494  eV     3   --> A''            
     e(  4 -  4) =     -7.99797  eV     1   --> A'             
     e(  5 -  5) =     -7.99442  eV     1   --> A''            
     e(  6 -  6) =     -7.99396  eV     1   --> A'             
     e(  7 -  7) =     -7.92710  eV     1   --> A''            
     e(  8 -  8) =     -7.92673  eV     1   --> A'             
     e(  9 -  9) =     -5.68006  eV     1   --> A'             
     e( 10 - 10) =      5.76571  eV     1   --> A'             
     e( 11 - 11) =      6.52112  eV     1   --> A'             
     e( 12 - 12) =      6.63748  eV     1   --> A''            
     e( 13 - 13) =      7.57392  eV     1   --> A'             
     e( 14 - 14) =     10.37805  eV     1   --> A'             
     e( 15 - 15) =     10.42355  eV     1   --> A''            
     e( 16 - 16) =     10.57423  eV     1   --> A'             

 **************************************************************************

 **************************************************************************

                    xk=(  -0.66291,  -0.70711,   0.66291  )

     Band symmetry, C_s (m)     point group:

     e(  1 -  3) =    -87.58494  eV     3   -->   2 A'             
     e(  1 -  3) =    -87.58494  eV     3   --> A''            
     e(  4 -  4) =     -7.99709  eV     1   --> A'             
     e(  5 -  5) =     -7.99460  eV     1   --> A''            
     e(  6 -  6) =     -7.99428  eV     1   --> A'             
     e(  7 -  7) =     -7.92704  eV     1   --> A''            
     e(  8 -  8) =     -7.92677  eV     1   --> A'             
     e(  9 -  9) =     -5.69264  eV     1   --> A'             
     e( 10 - 10) =      5.92967  eV     1   --> A'             
     e( 11 - 11) =      6.56248  eV     1   --> A'             
     e( 12 - 12) =      6.64391  eV     1   --> A''            
     e( 13 - 13) =      7.44867  eV     1   --> A'             
     e( 14 - 14) =     10.37807  eV     1   --> A'             
     e( 15 - 15) =     10.41106  eV     1   --> A''            
     e( 16 - 16) =     10.51610  eV     1   --> A'             

 **************************************************************************

 **************************************************************************

                    xk=(  -0.67175,  -0.70711,   0.67175  )

     Band symmetry, C_s (m)     point group:

     e(  1 -  3) =    -87.58494  eV     3   -->   2 A'             
     e(  1 -  3) =    -87.58494  eV     3   --> A''            
     e(  4 -  4) =     -7.99636  eV     1   --> A'             
     e(  5 -  5) =     -7.99476  eV     1   --> A''            
     e(  6 -  6) =     -7.99456  eV     1   --> A'             
     e(  7 -  7) =     -7.92698  eV     1   --> A''            
     e(  8 -  8) =     -7.92681  eV     1   --> A'             
     e(  9 -  9) =     -5.70296  eV     1   --> A'             
     e( 10 - 10) =      6.09241  eV     1   --> A'             
     e( 11 - 11) =      6.59668  eV     1   --> A'             
     e( 12 - 12) =      6.64912  eV     1   --> A''            
     e( 13 - 13) =      7.31755  eV     1   --> A'             
     e( 14 - 14) =     10.37895  eV     1   --> A'             
     e( 15 - 15) =     10.40084  eV     1   --> A''            
     e( 16 - 16) =     10.46824  eV     1   --> A'             

 **************************************************************************

 **************************************************************************

                    xk=(  -0.68059,  -0.70711,   0.68059  )

     Band symmetry, C_s (m)     point group:

     e(  1 -  3) =    -87.58494  eV     3   -->   2 A'             
     e(  1 -  3) =    -87.58494  eV     3   --> A''            
     e(  4 -  4) =     -7.99579  eV     1   --> A'             
     e(  5 -  5) =     -7.99488  eV     1   --> A''            
     e(  6 -  6) =     -7.99477  eV     1   --> A'             
     e(  7 -  7) =     -7.92694  eV     1   --> A''            
     e(  8 -  8) =     -7.92683  eV     1   --> A'             
     e(  9 -  9) =     -5.71099  eV     1   --> A'             
     e( 10 - 10) =      6.25320  eV     1   --> A'             
     e( 11 - 11) =      6.62350  eV     1   --> A'             
     e( 12 - 12) =      6.65315  eV     1   --> A''            
     e( 13 - 13) =      7.18128  eV     1   --> A'             
     e( 14 - 14) =     10.38022  eV     1   --> A'             
     e( 15 - 15) =     10.39289  eV     1   --> A''            
     e( 16 - 16) =     10.43087  eV     1   --> A'             

 **************************************************************************

 **************************************************************************

                    xk=(  -0.68943,  -0.70711,   0.68943  )

     Band symmetry, C_s (m)     point group:

     e(  1 -  3) =    -87.58490  eV     3   -->   2 A'             
     e(  1 -  3) =    -87.58490  eV     3   --> A''            
     e(  4 -  4) =     -7.99536  eV     1   --> A'             
     e(  5 -  6) =     -7.99496  eV     2   --> A'             
     e(  5 -  6) =     -7.99496  eV     2   --> A''            
     e(  7 -  8) =     -7.92690  eV     2   --> A'             
     e(  7 -  8) =     -7.92690  eV     2   --> A''            
     e(  9 -  9) =     -5.71673  eV     1   --> A'             
     e( 10 - 10) =      6.41071  eV     1   --> A'             
     e( 11 - 11) =      6.64279  eV     1   --> A'             
     e( 12 - 12) =      6.65601  eV     1   --> A''            
     e( 13 - 13) =      7.04123  eV     1   --> A'             
     e( 14 - 14) =     10.38147  eV     1   --> A'             
     e( 15 - 15) =     10.38723  eV     1   --> A''            
     e( 16 - 16) =     10.40413  eV     1   --> A'             

 **************************************************************************

 **************************************************************************

                    xk=(  -0.69827,  -0.70711,   0.69827  )

     Band symmetry, C_s (m)     point group:

     e(  1 -  3) =    -87.58467  eV     3   -->   2 A'             
     e(  1 -  3) =    -87.58467  eV     3   --> A''            
     e(  4 -  4) =     -7.99509  eV     1   --> A'             
     e(  5 -  6) =     -7.99499  eV     2   --> A'             
     e(  5 -  6) =     -7.99499  eV     2   --> A''            
     e(  7 -  8) =     -7.92684  eV     2   --> A'             
     e(  7 -  8) =     -7.92684  eV     2   --> A''            
     e(  9 -  9) =     -5.72018  eV     1   --> A'             
     e( 10 - 10) =      6.56056  eV     1   --> A'             
     e( 11 - 11) =      6.65441  eV     1   --> A'             
     e( 12 - 12) =      6.65772  eV     1   --> A''            
     e( 13 - 13) =      6.90183  eV     1   --> A'             
     e( 14 - 14) =     10.38239  eV     1   --> A'             
     e( 15 - 15) =     10.38384  eV     1   --> A''            
     e( 16 - 16) =     10.38807  eV     1   --> A'             

 **************************************************************************

 **************************************************************************

                    xk=(  -0.70711,  -0.70711,   0.70711  )

     point group T_d (-43m) 
     there are  5 classes
     the character table:

       E     8C3   3C2   6S4   6s_d 
A_1    1.00  1.00  1.00  1.00  1.00
A_2    1.00  1.00  1.00 -1.00 -1.00
E      2.00 -1.00  2.00  0.00  0.00
T_1    3.00  0.00 -1.00  1.00 -1.00
T_2    3.00  0.00 -1.00 -1.00  1.00

     the symmetry operations in each class and the name of the first element:

     E        1
                                                                 
     8C3      5    7    8    6   12    9   10   11
                                                                 
     3C2      2    3    4
                                                                 
     6S4     15   16   20   19   23   24
                                                                 
     6s_d    13   14   17   18   21   22
                                                                 

     Band symmetry, T_d (-43m)  point group:

     e(  1 -  3) =    -87.58467  eV     3   --> T_2  G_15 P_4  
     e(  4 -  6) =     -7.99501  eV     3   --> T_2  G_15 P_4  
     e(  7 -  8) =     -7.92683  eV     2   --> E    G_12 P_3  
     e(  9 -  9) =     -5.72133  eV     1   --> A_1  G_1  P_1  
     e( 10 - 12) =      6.65829  eV     3   --> T_2  G_15 P_4  
     e( 13 - 13) =      6.80758  eV     1   --> A_1  G_1  P_1  
     e( 14 - 16) =     10.38271  eV     3   --> T_2  G_15 P_4  

 **************************************************************************
 
     BANDS        :     11.40s CPU     22.25s WALL

 
   This run was terminated on:  22:17:39  10Jun2026            

=------------------------------------------------------------------------------=
   JOB DONE.
=------------------------------------------------------------------------------=
