
     Program PWSCF v.7.1 starts on 10Jun2026 at 22:17: 6 

     This program is part of the open-source Quantum ESPRESSO suite
     for quantum simulation of materials; please cite
         "P. Giannozzi et al., J. Phys.:Condens. Matter 21 395502 (2009);
         "P. Giannozzi et al., J. Phys.:Condens. Matter 29 465901 (2017);
         "P. Giannozzi et al., J. Chem. Phys. 152 154105 (2020);
          URL http://www.quantum-espresso.org", 
     in publications or presentations arising from this work. More details at
     http://www.quantum-espresso.org/quote

     Parallel version (MPI & OpenMP), running on       7 processor cores
     Number of MPI processes:                 7
     Threads/MPI process:                     1

     MPI processes distributed on     7 nodes
     224188 MiB available memory on the printing compute node when the environment starts
 
     Waiting for input...
     Reading input from standard input
Warning: card &IONS ignored
Warning: card  ION_DYNAMICS = 'BFGS' ignored
Warning: card  UPSCALE = 1.0 ignored
Warning: card / ignored
Warning: card &CELL ignored
Warning: card / ignored
Warning: card / ignored

     Current dimensions of program PWSCF are:
     Max number of different atomic species (ntypx) = 10
     Max number of k-points (npk) =  40000
     Max angular momentum in pseudopotentials (lmaxx) =  4

     Atomic positions and unit cell read from directory:
     ./data/scf.save/
     Atomic positions from file used, from input discarded
 
     Message from routine setup:
     using ibrav=0 with symmetry is DISCOURAGED, use correct ibrav instead
 
     K-points division:     npool     =       7
     Subspace diagonalization in iterative solution of the eigenvalue problem:
     a serial algorithm will be used

 
     G-vector sticks info
     --------------------
     sticks:   dense  smooth     PW     G-vecs:    dense   smooth      PW
     Sum        1639     649    211                43599    10969    2109
 
     Using Slab Decomposition
 


     bravais-lattice index     =            0
     lattice parameter (alat)  =       7.6834  a.u.
     unit-cell volume          =     320.7304 (a.u.)^3
     number of atoms/cell      =            2
     number of atomic types    =            2
     number of electrons       =        24.00
     number of Kohn-Sham states=           16
     kinetic-energy cutoff     =      40.0000  Ry
     charge density cutoff     =     400.0000  Ry
     Exchange-correlation= SLA  PW   PBE  PBE
                           (   1   4   3   4   0   0   0)

     celldm(1)=   7.683369  celldm(2)=   0.000000  celldm(3)=   0.000000
     celldm(4)=   0.000000  celldm(5)=   0.000000  celldm(6)=   0.000000

     crystal axes: (cart. coord. in units of alat)
               a(1) = (   0.000000   0.707107   0.707107 )  
               a(2) = (   0.707107   0.000000   0.707107 )  
               a(3) = (   0.707107   0.707107   0.000000 )  

     reciprocal axes: (cart. coord. in units 2 pi/alat)
               b(1) = ( -0.707107  0.707107  0.707107 )  
               b(2) = (  0.707107 -0.707107  0.707107 )  
               b(3) = (  0.707107  0.707107 -0.707107 )  


     PseudoPot. # 1 for Ga read from file:
     /home/k0750/k075000/PSPOT/ga_pbe_v1.4.uspp.F.UPF
     MD5 check sum: ccd671392a58a050fbb373893b4fcd66
     Pseudo is Ultrasoft + core correction, Zval = 19.0
     Generated by new atomic code, or converted to UPF format
     Using radial grid of  871 points,  6 beta functions with: 
                l(1) =   0
                l(2) =   0
                l(3) =   1
                l(4) =   1
                l(5) =   2
                l(6) =   2
     Q(r) pseudized with  8 coefficients,  rinner =    1.250   1.250   1.250
                                                       1.250   1.250

     PseudoPot. # 2 for As read from file:
     /home/k0750/k075000/PSPOT/as_pbe_v1.uspp.F.UPF
     MD5 check sum: a55e54db9b6ff5e275ac1f228f32106c
     Pseudo is Ultrasoft + core correction, Zval =  5.0
     Generated by new atomic code, or converted to UPF format
     Using radial grid of  875 points,  6 beta functions with: 
                l(1) =   0
                l(2) =   0
                l(3) =   1
                l(4) =   1
                l(5) =   2
                l(6) =   2
     Q(r) pseudized with  8 coefficients,  rinner =    1.300   1.300   1.300
                                                       1.300   1.300

     atomic species   valence    mass     pseudopotential
        Ga            19.00    69.70000     Ga( 1.00)
        As             5.00    74.90000     As( 1.00)

     24 Sym. Ops. (no inversion) found



   Cartesian axes

     site n.     atom                  positions (alat units)
         1           Ga  tau(   1) = (   0.0000000   0.0000000   0.0000000  )
         2           As  tau(   2) = (   0.3535534   0.3535534   0.3535534  )

     number of k points=   181  Methfessel-Paxton smearing, width (Ry)=  0.0100

     Number of k-points >= 100: set verbosity='high' to print them.

     Dense  grid:    43599 G-vectors     FFT dimensions: (  50,  50,  50)

     Smooth grid:    10969 G-vectors     FFT dimensions: (  32,  32,  32)

     Estimated max dynamical RAM per process >      38.17 MB

     Estimated total dynamical RAM >     267.18 MB

     The potential is recalculated from file :
     ./data/scf.save/charge-density

     Starting wfcs are   16 randomized atomic wfcs

     Band Structure Calculation
     Davidson diagonalization with overlap

     ethr =  4.17E-11,  avg # of iterations = 34.4

     total cpu time spent up to now is       10.2 secs

     End of band structure calculation

     Number of k-points >= 100: set verbosity='high' to print the bands.

     Writing all to output data dir ./data/scf.save/
 
     init_run     :      0.33s CPU      0.37s WALL (       1 calls)
     electrons    :      9.48s CPU      9.56s WALL (       1 calls)

     Called by init_run:
     wfcinit      :      0.00s CPU      0.00s WALL (       1 calls)
     potinit      :      0.05s CPU      0.06s WALL (       1 calls)
     hinit0       :      0.24s CPU      0.26s WALL (       1 calls)

     Called by electrons:
     c_bands      :      9.48s CPU      9.56s WALL (       1 calls)
     v_of_rho     :      0.03s CPU      0.04s WALL (       1 calls)
     newd         :      0.03s CPU      0.03s WALL (       1 calls)

     Called by c_bands:
     init_us_2    :      0.01s CPU      0.01s WALL (      26 calls)
     init_us_2:cp :      0.01s CPU      0.01s WALL (      26 calls)
     cegterg      :      7.30s CPU      7.36s WALL (      53 calls)

     Called by *egterg:
     cdiaghg      :      0.22s CPU      0.22s WALL (     926 calls)
     h_psi        :      6.26s CPU      6.31s WALL (     979 calls)
     s_psi        :      0.15s CPU      0.15s WALL (     979 calls)
     g_psi        :      0.05s CPU      0.05s WALL (     900 calls)

     Called by h_psi:
     h_psi:calbec :      0.15s CPU      0.15s WALL (     979 calls)
     vloc_psi     :      5.95s CPU      6.00s WALL (     979 calls)
     add_vuspsi   :      0.15s CPU      0.15s WALL (     979 calls)

     General routines
     calbec       :      0.15s CPU      0.15s WALL (     979 calls)
     fft          :      0.01s CPU      0.02s WALL (      13 calls)
     ffts         :      0.00s CPU      0.00s WALL (       1 calls)
     fftw         :      5.55s CPU      5.60s WALL (   23380 calls)
     interpolate  :      0.00s CPU      0.00s WALL (       1 calls)
     davcio       :      0.00s CPU      0.01s WALL (      52 calls)
 
     Parallel routines
 
     PWSCF        :     10.12s CPU     10.36s WALL

 
   This run was terminated on:  22:17:16  10Jun2026            

=------------------------------------------------------------------------------=
   JOB DONE.
=------------------------------------------------------------------------------=
