
     Program PWSCF v.7.1 starts on 10Jun2026 at 22:16:56 

     This program is part of the open-source Quantum ESPRESSO suite
     for quantum simulation of materials; please cite
         "P. Giannozzi et al., J. Phys.:Condens. Matter 21 395502 (2009);
         "P. Giannozzi et al., J. Phys.:Condens. Matter 29 465901 (2017);
         "P. Giannozzi et al., J. Chem. Phys. 152 154105 (2020);
          URL http://www.quantum-espresso.org", 
     in publications or presentations arising from this work. More details at
     http://www.quantum-espresso.org/quote

     Parallel version (MPI & OpenMP), running on       7 processor cores
     Number of MPI processes:                 7
     Threads/MPI process:                     1

     MPI processes distributed on     7 nodes
     224226 MiB available memory on the printing compute node when the environment starts
 
     Waiting for input...
     Reading input from standard input
Warning: card &CELL ignored
Warning: card / ignored
Warning: card / ignored

     Current dimensions of program PWSCF are:
     Max number of different atomic species (ntypx) = 10
     Max number of k-points (npk) =  40000
     Max angular momentum in pseudopotentials (lmaxx) =  4
     Message from routine setup:
     using ibrav=0 with symmetry is DISCOURAGED, use correct ibrav instead
 
     K-points division:     npool     =       7
     Subspace diagonalization in iterative solution of the eigenvalue problem:
     a serial algorithm will be used

 
     G-vector sticks info
     --------------------
     sticks:   dense  smooth     PW     G-vecs:    dense   smooth      PW
     Sum        1639     649    199                43599    10969    1917
 
     Using Slab Decomposition
 


     bravais-lattice index     =            0
     lattice parameter (alat)  =       7.6834  a.u.
     unit-cell volume          =     320.7304 (a.u.)^3
     number of atoms/cell      =            2
     number of atomic types    =            2
     number of electrons       =        24.00
     number of Kohn-Sham states=           16
     kinetic-energy cutoff     =      40.0000  Ry
     charge density cutoff     =     400.0000  Ry
     scf convergence threshold =      1.0E-08
     mixing beta               =       0.0750
     number of iterations used =            8  plain     mixing
     Exchange-correlation= SLA  PW   PBE  PBE
                           (   1   4   3   4   0   0   0)

     celldm(1)=   7.683369  celldm(2)=   0.000000  celldm(3)=   0.000000
     celldm(4)=   0.000000  celldm(5)=   0.000000  celldm(6)=   0.000000

     crystal axes: (cart. coord. in units of alat)
               a(1) = (   0.000000   0.707107   0.707107 )  
               a(2) = (   0.707107   0.000000   0.707107 )  
               a(3) = (   0.707107   0.707107   0.000000 )  

     reciprocal axes: (cart. coord. in units 2 pi/alat)
               b(1) = ( -0.707107  0.707107  0.707107 )  
               b(2) = (  0.707107 -0.707107  0.707107 )  
               b(3) = (  0.707107  0.707107 -0.707107 )  


     PseudoPot. # 1 for Ga read from file:
     /home/k0750/k075000/PSPOT/ga_pbe_v1.4.uspp.F.UPF
     MD5 check sum: ccd671392a58a050fbb373893b4fcd66
     Pseudo is Ultrasoft + core correction, Zval = 19.0
     Generated by new atomic code, or converted to UPF format
     Using radial grid of  871 points,  6 beta functions with: 
                l(1) =   0
                l(2) =   0
                l(3) =   1
                l(4) =   1
                l(5) =   2
                l(6) =   2
     Q(r) pseudized with  8 coefficients,  rinner =    1.250   1.250   1.250
                                                       1.250   1.250

     PseudoPot. # 2 for As read from file:
     /home/k0750/k075000/PSPOT/as_pbe_v1.uspp.F.UPF
     MD5 check sum: a55e54db9b6ff5e275ac1f228f32106c
     Pseudo is Ultrasoft + core correction, Zval =  5.0
     Generated by new atomic code, or converted to UPF format
     Using radial grid of  875 points,  6 beta functions with: 
                l(1) =   0
                l(2) =   0
                l(3) =   1
                l(4) =   1
                l(5) =   2
                l(6) =   2
     Q(r) pseudized with  8 coefficients,  rinner =    1.300   1.300   1.300
                                                       1.300   1.300

     atomic species   valence    mass     pseudopotential
        Ga            19.00    69.70000     Ga( 1.00)
        As             5.00    74.90000     As( 1.00)

     24 Sym. Ops. (no inversion) found



   Cartesian axes

     site n.     atom                  positions (alat units)
         1           Ga  tau(   1) = (   0.0000000   0.0000000   0.0000000  )
         2           As  tau(   2) = (   0.3535534   0.3535534   0.3535534  )

     number of k points=    72  Methfessel-Paxton smearing, width (Ry)=  0.0100
                       cart. coord. in units 2pi/alat
        k(    1) = (   0.0000000   0.0000000   0.0000000), wk =   0.0011574
        k(    2) = (   0.0589256   0.0589256  -0.0589256), wk =   0.0092593
        k(    3) = (   0.1178511   0.1178511  -0.1178511), wk =   0.0092593
        k(    4) = (   0.1767767   0.1767767  -0.1767767), wk =   0.0092593
        k(    5) = (   0.2357023   0.2357023  -0.2357023), wk =   0.0092593
        k(    6) = (   0.2946278   0.2946278  -0.2946278), wk =   0.0092593
        k(    7) = (  -0.3535534  -0.3535534   0.3535534), wk =   0.0046296
        k(    8) = (   0.1178511   0.0000000   0.0000000), wk =   0.0069444
        k(    9) = (   0.1767767   0.0589256  -0.0589256), wk =   0.0277778
        k(   10) = (   0.2357023   0.1178511  -0.1178511), wk =   0.0277778
        k(   11) = (   0.2946278   0.1767767  -0.1767767), wk =   0.0277778
        k(   12) = (   0.3535534   0.2357023  -0.2357023), wk =   0.0277778
        k(   13) = (  -0.2946278  -0.4124790   0.4124790), wk =   0.0277778
        k(   14) = (  -0.2357023  -0.3535534   0.3535534), wk =   0.0277778
        k(   15) = (  -0.1767767  -0.2946278   0.2946278), wk =   0.0277778
        k(   16) = (  -0.1178511  -0.2357023   0.2357023), wk =   0.0277778
        k(   17) = (  -0.0589256  -0.1767767   0.1767767), wk =   0.0277778
        k(   18) = (  -0.0000000  -0.1178511   0.1178511), wk =   0.0138889
        k(   19) = (   0.2357023   0.0000000   0.0000000), wk =   0.0069444
        k(   20) = (   0.2946278   0.0589256  -0.0589256), wk =   0.0277778
        k(   21) = (   0.3535534   0.1178511  -0.1178511), wk =   0.0277778
        k(   22) = (   0.4124790   0.1767767  -0.1767767), wk =   0.0277778
        k(   23) = (  -0.2357023  -0.4714045   0.4714045), wk =   0.0277778
        k(   24) = (  -0.1767767  -0.4124790   0.4124790), wk =   0.0277778
        k(   25) = (  -0.1178511  -0.3535534   0.3535534), wk =   0.0277778
        k(   26) = (  -0.0589256  -0.2946278   0.2946278), wk =   0.0277778
        k(   27) = (   0.0000000  -0.2357023   0.2357023), wk =   0.0138889
        k(   28) = (   0.3535534   0.0000000   0.0000000), wk =   0.0069444
        k(   29) = (   0.4124790   0.0589256  -0.0589256), wk =   0.0277778
        k(   30) = (   0.4714045   0.1178511  -0.1178511), wk =   0.0277778
        k(   31) = (  -0.1767767  -0.5303301   0.5303301), wk =   0.0277778
        k(   32) = (  -0.1178511  -0.4714045   0.4714045), wk =   0.0277778
        k(   33) = (  -0.0589256  -0.4124790   0.4124790), wk =   0.0277778
        k(   34) = (   0.0000000  -0.3535534   0.3535534), wk =   0.0138889
        k(   35) = (   0.4714045   0.0000000   0.0000000), wk =   0.0069444
        k(   36) = (   0.5303301   0.0589256  -0.0589256), wk =   0.0277778
        k(   37) = (  -0.1178511  -0.5892557   0.5892557), wk =   0.0277778
        k(   38) = (  -0.0589256  -0.5303301   0.5303301), wk =   0.0277778
        k(   39) = (  -0.0000000  -0.4714045   0.4714045), wk =   0.0138889
        k(   40) = (   0.5892557   0.0000000   0.0000000), wk =   0.0069444
        k(   41) = (  -0.0589256  -0.6481812   0.6481812), wk =   0.0277778
        k(   42) = (   0.0000000  -0.5892557   0.5892557), wk =   0.0138889
        k(   43) = (  -0.7071068   0.0000000   0.0000000), wk =   0.0034722
        k(   44) = (   0.2357023   0.1178511  -0.0000000), wk =   0.0277778
        k(   45) = (   0.2946278   0.1767767  -0.0589256), wk =   0.0555556
        k(   46) = (   0.3535534   0.2357023  -0.1178511), wk =   0.0555556
        k(   47) = (  -0.2946278  -0.4124790   0.5303301), wk =   0.0555556
        k(   48) = (  -0.2357023  -0.3535534   0.4714045), wk =   0.0277778
        k(   49) = (   0.3535534   0.1178511   0.0000000), wk =   0.0277778
        k(   50) = (   0.4124790   0.1767767  -0.0589256), wk =   0.0555556
        k(   51) = (  -0.2357023  -0.4714045   0.5892557), wk =   0.0555556
        k(   52) = (  -0.1767767  -0.4124790   0.5303301), wk =   0.0555556
        k(   53) = (  -0.1178511  -0.3535534   0.4714045), wk =   0.0555556
        k(   54) = (  -0.0589256  -0.2946278   0.4124790), wk =   0.0555556
        k(   55) = (   0.0000000  -0.2357023   0.3535534), wk =   0.0277778
        k(   56) = (   0.4714045   0.1178511   0.0000000), wk =   0.0277778
        k(   57) = (  -0.1767767  -0.5303301   0.6481812), wk =   0.0555556
        k(   58) = (  -0.1178511  -0.4714045   0.5892557), wk =   0.0555556
        k(   59) = (  -0.0589256  -0.4124790   0.5303301), wk =   0.0555556
        k(   60) = (  -0.0000000  -0.3535534   0.4714045), wk =   0.0277778
        k(   61) = (  -0.1178511  -0.5892557   0.7071068), wk =   0.0277778
        k(   62) = (  -0.0589256  -0.5303301   0.6481812), wk =   0.0555556
        k(   63) = (  -0.0000000  -0.4714045   0.5892557), wk =   0.0277778
        k(   64) = (  -0.7071068   0.1178511   0.0000000), wk =   0.0138889
        k(   65) = (  -0.2357023  -0.4714045   0.7071068), wk =   0.0277778
        k(   66) = (  -0.1767767  -0.4124790   0.6481812), wk =   0.0555556
        k(   67) = (  -0.1178511  -0.3535534   0.5892557), wk =   0.0277778
        k(   68) = (  -0.1178511  -0.4714045   0.7071068), wk =   0.0277778
        k(   69) = (  -0.0589256  -0.4124790   0.6481812), wk =   0.0555556
        k(   70) = (   0.0000000  -0.3535534   0.5892557), wk =   0.0277778
        k(   71) = (  -0.7071068   0.2357023   0.0000000), wk =   0.0138889
        k(   72) = (  -0.7071068   0.3535534   0.0000000), wk =   0.0069444

     Dense  grid:    43599 G-vectors     FFT dimensions: (  50,  50,  50)

     Smooth grid:    10969 G-vectors     FFT dimensions: (  32,  32,  32)

     Estimated max dynamical RAM per process >      54.11 MB

     Estimated total dynamical RAM >     314.91 MB

     Initial potential from superposition of free atoms

     starting charge      22.9998, renormalised to      24.0000
     Starting wfcs are   16 randomized atomic wfcs

     total cpu time spent up to now is        1.0 secs

     Self-consistent Calculation

     iteration #  1     ecut=    40.00 Ry     beta= 0.07
     Davidson diagonalization with overlap
     ethr =  1.00E-02,  avg # of iterations =  4.1

     total cpu time spent up to now is        1.5 secs

     total energy              =    -456.14384320 Ry
     estimated scf accuracy    <       6.68718615 Ry

     iteration #  2     ecut=    40.00 Ry     beta= 0.07
     Davidson diagonalization with overlap
     ethr =  1.00E-02,  avg # of iterations =  1.3

     total cpu time spent up to now is        2.0 secs

     total energy              =    -455.45904884 Ry
     estimated scf accuracy    <       2.53594590 Ry

     iteration #  3     ecut=    40.00 Ry     beta= 0.07
     Davidson diagonalization with overlap
     ethr =  1.00E-02,  avg # of iterations =  2.0

     total cpu time spent up to now is        2.4 secs

     total energy              =    -455.63537564 Ry
     estimated scf accuracy    <       0.26458460 Ry

     iteration #  4     ecut=    40.00 Ry     beta= 0.07
     Davidson diagonalization with overlap
     ethr =  1.10E-03,  avg # of iterations =  2.0

     total cpu time spent up to now is        2.8 secs

     WARNING: integrated charge=    24.00010139, expected=    24.00000000

     total energy              =    -455.67040489 Ry
     estimated scf accuracy    <       0.03100640 Ry

     iteration #  5     ecut=    40.00 Ry     beta= 0.07
     Davidson diagonalization with overlap
     ethr =  1.29E-04,  avg # of iterations =  1.6

     total cpu time spent up to now is        3.3 secs

     WARNING: integrated charge=    24.00022992, expected=    24.00000000

     total energy              =    -455.66200458 Ry
     estimated scf accuracy    <       0.01863122 Ry

     iteration #  6     ecut=    40.00 Ry     beta= 0.07
     Davidson diagonalization with overlap
     ethr =  7.76E-05,  avg # of iterations =  2.2

     total cpu time spent up to now is        3.7 secs

     WARNING: integrated charge=    24.00030817, expected=    24.00000000

     total energy              =    -455.66544407 Ry
     estimated scf accuracy    <       0.00075425 Ry

     iteration #  7     ecut=    40.00 Ry     beta= 0.07
     Davidson diagonalization with overlap
     ethr =  3.14E-06,  avg # of iterations =  4.2

     total cpu time spent up to now is        4.3 secs

     WARNING: integrated charge=    24.00006647, expected=    24.00000000

     total energy              =    -455.66373853 Ry
     estimated scf accuracy    <       0.00298043 Ry

     iteration #  8     ecut=    40.00 Ry     beta= 0.07
     Davidson diagonalization with overlap
     ethr =  3.14E-06,  avg # of iterations =  2.2

     total cpu time spent up to now is        4.8 secs

     WARNING: integrated charge=    24.00004325, expected=    24.00000000

     total energy              =    -455.66463188 Ry
     estimated scf accuracy    <       0.00018325 Ry

     iteration #  9     ecut=    40.00 Ry     beta= 0.07
     Davidson diagonalization with overlap
     ethr =  7.64E-07,  avg # of iterations =  1.1

     total cpu time spent up to now is        5.2 secs

     WARNING: integrated charge=    24.00003020, expected=    24.00000000

     total energy              =    -455.66456384 Ry
     estimated scf accuracy    <       0.00012058 Ry

     iteration # 10     ecut=    40.00 Ry     beta= 0.07
     Davidson diagonalization with overlap
     ethr =  5.02E-07,  avg # of iterations =  2.0

     total cpu time spent up to now is        5.7 secs

     WARNING: integrated charge=    24.00001291, expected=    24.00000000

     total energy              =    -455.66459593 Ry
     estimated scf accuracy    <       0.00000071 Ry

     iteration # 11     ecut=    40.00 Ry     beta= 0.07
     Davidson diagonalization with overlap
     ethr =  2.97E-09,  avg # of iterations =  5.7

     total cpu time spent up to now is        6.4 secs

     WARNING: integrated charge=    24.00001614, expected=    24.00000000

     total energy              =    -455.66459716 Ry
     estimated scf accuracy    <       0.00000567 Ry

     iteration # 12     ecut=    40.00 Ry     beta= 0.07
     Davidson diagonalization with overlap
     ethr =  2.97E-09,  avg # of iterations =  2.0

     total cpu time spent up to now is        6.9 secs

     WARNING: integrated charge=    24.00000601, expected=    24.00000000

     total energy              =    -455.66460023 Ry
     estimated scf accuracy    <       0.00000057 Ry

     iteration # 13     ecut=    40.00 Ry     beta= 0.07
     Davidson diagonalization with overlap
     ethr =  2.37E-09,  avg # of iterations =  3.0

     total cpu time spent up to now is        7.4 secs

     total energy              =    -455.66459831 Ry
     estimated scf accuracy    <       0.00000756 Ry

     iteration # 14     ecut=    40.00 Ry     beta= 0.07
     Davidson diagonalization with overlap
     ethr =  2.37E-09,  avg # of iterations =  3.0

     total cpu time spent up to now is        7.9 secs

     total energy              =    -455.66459980 Ry
     estimated scf accuracy    <       0.00000038 Ry

     iteration # 15     ecut=    40.00 Ry     beta= 0.07
     Davidson diagonalization with overlap
     ethr =  1.57E-09,  avg # of iterations =  1.0

     total cpu time spent up to now is        8.3 secs

     total energy              =    -455.66460029 Ry
     estimated scf accuracy    <       0.00000011 Ry

     iteration # 16     ecut=    40.00 Ry     beta= 0.07
     Davidson diagonalization with overlap
     ethr =  4.59E-10,  avg # of iterations =  2.0

     total cpu time spent up to now is        8.7 secs

     total energy              =    -455.66460073 Ry
     estimated scf accuracy    <       0.00000002 Ry

     iteration # 17     ecut=    40.00 Ry     beta= 0.07
     Davidson diagonalization with overlap
     ethr =  6.27E-11,  avg # of iterations =  2.0

     total cpu time spent up to now is        9.2 secs

     End of self-consistent calculation

          k = 0.0000 0.0000 0.0000 (  1363 PWs)   bands (ev):

   -87.5845 -87.5845 -87.5845  -7.9949  -7.9949  -7.9949  -7.9267  -7.9267
    -5.7214   6.6583   6.6583   6.6583   6.8075  10.3827  10.3827  10.3827

          k = 0.0589 0.0589-0.0589 (  1387 PWs)   bands (ev):

   -87.5847 -87.5847 -87.5847  -7.9999  -7.9935  -7.9935  -7.9268  -7.9268
    -5.6452   5.3737   6.5539   6.5539   7.7612  10.5076  10.5408  10.5408

          k = 0.1179 0.1179-0.1179 (  1381 PWs)   bands (ev):

   -87.5848 -87.5848 -87.5845  -8.0131  -7.9898  -7.9898  -7.9268  -7.9268
    -5.4235   3.9563   6.3065   6.3065   8.0900  10.8991  10.8991  11.1943

          k = 0.1768 0.1768-0.1768 (  1375 PWs)   bands (ev):

   -87.5847 -87.5847 -87.5844  -8.0301  -7.9852  -7.9852  -7.9263  -7.9263
    -5.0786   2.6126   6.0283   6.0283   7.9491  11.2108  11.2108  12.3800

          k = 0.2357 0.2357-0.2357 (  1362 PWs)   bands (ev):

   -87.5845 -87.5845 -87.5845  -8.0460  -7.9813  -7.9813  -7.9251  -7.9251
    -4.6602   1.4504   5.7949   5.7949   7.7318  11.3219  11.3219  13.6625

          k = 0.2946 0.2946-0.2946 (  1380 PWs)   bands (ev):

   -87.5847 -87.5847 -87.5847  -8.0571  -7.9790  -7.9790  -7.9238  -7.9238
    -4.2740   0.6074   5.6439   5.6439   7.5772  11.3027  11.3027  14.3346

          k =-0.3536-0.3536 0.3536 (  1380 PWs)   bands (ev):

   -87.5847 -87.5847 -87.5847  -8.0610  -7.9782  -7.9782  -7.9232  -7.9232
    -4.1045   0.2841   5.5921   5.5921   7.5230  11.2806  11.2806  14.3784

          k = 0.1179 0.0000 0.0000 (  1391 PWs)   bands (ev):

   -87.5849 -87.5847 -87.5847  -8.0031  -7.9922  -7.9922  -7.9278  -7.9260
    -5.6198   5.2975   6.3537   6.3537   8.1393  10.0444  10.8179  10.8179

          k = 0.1768 0.0589-0.0589 (  1370 PWs)   bands (ev):

   -87.5846 -87.5845 -87.5845  -8.0139  -7.9892  -7.9885  -7.9287  -7.9252
    -5.4464   4.2401   6.0555   6.1240   8.6230  10.0214  11.2701  11.3671

          k = 0.2357 0.1179-0.1179 (  1368 PWs)   bands (ev):

   -87.5846 -87.5846 -87.5843  -8.0288  -7.9854  -7.9838  -7.9292  -7.9244
    -5.1415   2.9753   5.7686   5.8141   8.6112  10.4652  11.6554  12.0945

          k = 0.2946 0.1768-0.1768 (  1369 PWs)   bands (ev):

   -87.5846 -87.5846 -87.5844  -8.0441  -7.9816  -7.9797  -7.9285  -7.9235
    -4.7432   1.7942   5.4796   5.5567   8.4135  10.8731  11.7878  12.9011

          k = 0.3536 0.2357-0.2357 (  1381 PWs)   bands (ev):

   -87.5848 -87.5847 -87.5847  -8.0560  -7.9789  -7.9772  -7.9268  -7.9227
    -4.3338   0.8544   5.2012   5.4495   8.2369  11.0164  11.7089  13.8696

          k =-0.2946-0.4125 0.4125 (  1371 PWs)   bands (ev):

   -87.5847 -87.5846 -87.5846  -8.0619  -7.9775  -7.9763  -7.9249  -7.9228
    -4.0733   0.3481   5.0189   5.4564   8.1426  11.0827  11.5721  14.5109

          k =-0.2357-0.3536 0.3536 (  1381 PWs)   bands (ev):

   -87.5849 -87.5847 -87.5846  -8.0605  -7.9774  -7.9771  -7.9243  -7.9239
    -4.1315   0.4568   4.9527   5.5738   8.1477  11.1951  11.4628  14.4925

          k =-0.1768-0.2946 0.2946 (  1376 PWs)   bands (ev):

   -87.5848 -87.5846 -87.5846  -8.0521  -7.9795  -7.9787  -7.9263  -7.9240
    -4.4646   1.1335   5.0140   5.7866   8.2494  11.3387  11.3688  13.7326

          k =-0.1179-0.2357 0.2357 (  1369 PWs)   bands (ev):

   -87.5846 -87.5846 -87.5844  -8.0384  -7.9834  -7.9815  -7.9278  -7.9247
    -4.8837   2.1691   5.2091   6.0643   8.4174  11.1951  11.3282  12.6727

          k =-0.0589-0.1768 0.1768 (  1371 PWs)   bands (ev):

   -87.5847 -87.5845 -87.5844  -8.0224  -7.9881  -7.9855  -7.9282  -7.9254
    -5.2568   3.3793   5.5432   6.3504   8.5376  10.8600  10.8821  11.9327

          k =-0.0000-0.1179 0.1179 (  1383 PWs)   bands (ev):

   -87.5847 -87.5847 -87.5846  -8.0082  -7.9919  -7.9900  -7.9277  -7.9261
    -5.5204   4.5645   6.0305   6.5494   8.2967  10.4468  10.5846  11.2516

          k = 0.2357 0.0000 0.0000 (  1371 PWs)   bands (ev):

   -87.5846 -87.5846 -87.5844  -8.0235  -7.9847  -7.9847  -7.9310  -7.9239
    -5.3236   3.9103   5.7219   5.7219   9.0701   9.6290  11.8361  11.8361

          k = 0.2946 0.0589-0.0589 (  1364 PWs)   bands (ev):

   -87.5846 -87.5845 -87.5843  -8.0364  -7.9804  -7.9797  -7.9328  -7.9226
    -5.0660   3.0342   5.3577   5.4155   9.0967   9.8179  12.2711  12.3621

          k = 0.3536 0.1179-0.1179 (  1360 PWs)   bands (ev):

   -87.5845 -87.5844 -87.5844  -8.0493  -7.9772  -7.9752  -7.9332  -7.9216
    -4.7028   2.0158   4.9094   5.1984   9.0750  10.3064  12.2717  12.6142

          k = 0.4125 0.1768-0.1768 (  1368 PWs)   bands (ev):

   -87.5847 -87.5845 -87.5845  -8.0596  -7.9753  -7.9723  -7.9320  -7.9212
    -4.2977   1.1008   4.4862   5.1000   8.9560  10.8546  12.5591  12.5874

          k =-0.2357-0.4714 0.4714 (  1372 PWs)   bands (ev):

   -87.5847 -87.5846 -87.5845  -8.0653  -7.9746  -7.9713  -7.9295  -7.9219
    -3.9806   0.4955   4.1680   5.1296   8.8798  11.0581  12.3601  13.5661

          k =-0.1768-0.4125 0.4125 (  1382 PWs)   bands (ev):

   -87.5849 -87.5847 -87.5846  -8.0653  -7.9748  -7.9721  -7.9270  -7.9240
    -3.9302   0.4095   3.9931   5.2823   8.8914  11.1737  12.1412  14.3893

          k =-0.1179-0.3536 0.3536 (  1367 PWs)   bands (ev):

   -87.5846 -87.5845 -87.5845  -8.0595  -7.9757  -7.9746  -7.9267  -7.9253
    -4.1831   0.8771   3.9912   5.5382   8.9826  11.3485  11.9151  13.5810

          k =-0.0589-0.2946 0.2946 (  1372 PWs)   bands (ev):

   -87.5847 -87.5846 -87.5844  -8.0489  -7.9789  -7.9777  -7.9286  -7.9246
    -4.5780   1.6944   4.2051   5.8571   9.0936  11.4670  11.6058  12.5025

          k = 0.0000-0.2357 0.2357 (  1370 PWs)   bands (ev):

   -87.5847 -87.5845 -87.5844  -8.0356  -7.9840  -7.9810  -7.9290  -7.9248
    -4.9626   2.6015   4.7110   6.1660   9.0329  11.0636  11.1943  12.2069

          k = 0.3536 0.0000 0.0000 (  1355 PWs)   bands (ev):

   -87.5844 -87.5844 -87.5843  -8.0482  -7.9743  -7.9743  -7.9361  -7.9210
    -4.8583   2.5976   5.0861   5.0861   8.6679   9.7916  13.1011  13.1011

          k = 0.4125 0.0589-0.0589 (  1367 PWs)   bands (ev):

   -87.5847 -87.5845 -87.5845  -8.0595  -7.9700  -7.9693  -7.9381  -7.9197
    -4.5411   1.8787   4.6752   4.8477   8.6986   9.7420  13.0896  13.5943

          k = 0.4714 0.1179-0.1179 (  1371 PWs)   bands (ev):

   -87.5847 -87.5845 -87.5845  -8.0679  -7.9684  -7.9659  -7.9378  -7.9193
    -4.1650   1.1405   4.1194   4.7334   8.8282  10.2435  12.8228  13.6760

          k =-0.1768-0.5303 0.5303 (  1368 PWs)   bands (ev):

   -87.5847 -87.5846 -87.5845  -8.0720  -7.9689  -7.9646  -7.9355  -7.9203
    -3.8334   0.5787   3.6240   4.7554   8.8527  11.2081  12.7868  13.4773

          k =-0.1179-0.4714 0.4714 (  1372 PWs)   bands (ev):

   -87.5848 -87.5846 -87.5845  -8.0716  -7.9705  -7.9655  -7.9321  -7.9227
    -3.7057   0.3882   3.3059   4.9103   8.9436  11.8313  13.1684  13.4434

          k =-0.0589-0.4125 0.4125 (  1362 PWs)   bands (ev):

   -87.5846 -87.5845 -87.5844  -8.0669  -7.9725  -7.9684  -7.9287  -7.9258
    -3.8664   0.6424   3.2384   5.1793   9.1186  12.0207  12.7745  13.4921

          k = 0.0000-0.3536 0.3536 (  1368 PWs)   bands (ev):

   -87.5847 -87.5846 -87.5844  -8.0589  -7.9748  -7.9733  -7.9280  -7.9261
    -4.2079   1.1600   3.5129   5.5208   9.2727  12.1349  12.2261  12.3580

          k = 0.4714 0.0000 0.0000 (  1379 PWs)   bands (ev):

   -87.5849 -87.5846 -87.5846  -8.0701  -7.9637  -7.9637  -7.9417  -7.9181
    -4.2765   1.4071   4.5816   4.5816   8.2864   9.2810  14.4558  14.4559

          k = 0.5303 0.0589-0.0589 (  1366 PWs)   bands (ev):

   -87.5847 -87.5845 -87.5844  -8.0775  -7.9609  -7.9599  -7.9429  -7.9174
    -3.9523   0.8612   4.1883   4.4390   8.4073   9.2084  14.3380  14.8585

          k =-0.1179-0.5893 0.5893 (  1372 PWs)   bands (ev):

   -87.5847 -87.5846 -87.5846  -8.0804  -7.9618  -7.9585  -7.9412  -7.9181
    -3.6547   0.4387   3.6029   4.4360   8.5482   9.9475  14.0626  14.7530

          k =-0.0589-0.5303 0.5303 (  1367 PWs)   bands (ev):

   -87.5847 -87.5846 -87.5844  -8.0788  -7.9649  -7.9594  -7.9377  -7.9205
    -3.5113   0.2779   3.1225   4.5726   8.6717  11.1968  13.9115  14.3423

          k =-0.0000-0.4714 0.4714 (  1382 PWs)   bands (ev):

   -87.5849 -87.5847 -87.5846  -8.0738  -7.9688  -7.9630  -7.9332  -7.9235
    -3.6025   0.3999   2.9508   4.8329   8.8920  12.3150  13.6702  13.9409

          k = 0.5893 0.0000 0.0000 (  1367 PWs)   bands (ev):

   -87.5847 -87.5845 -87.5845  -8.0847  -7.9558  -7.9558  -7.9460  -7.9160
    -3.7027   0.4642   4.2633   4.2633   8.1411   8.6787  15.7567  15.7568

          k =-0.0589-0.6482 0.6482 (  1363 PWs)   bands (ev):

   -87.5846 -87.5845 -87.5844  -8.0873  -7.9556  -7.9543  -7.9456  -7.9161
    -3.4950   0.1853   3.9377   4.2272   8.3124   8.7975  15.6308  15.9273

          k = 0.0000-0.5893 0.5893 (  1362 PWs)   bands (ev):

   -87.5846 -87.5845 -87.5844  -8.0848  -7.9593  -7.9555  -7.9424  -7.9179
    -3.4217   0.1425   3.4252   4.3342   8.4435   9.8199  15.1137  15.3754

          k =-0.7071 0.0000 0.0000 (  1362 PWs)   bands (ev):

   -87.5846 -87.5845 -87.5845  -8.0899  -7.9529  -7.9529  -7.9476  -7.9153
    -3.4282   0.0657   4.1550   4.1550   8.2161   8.3333  16.4616  16.4617

          k = 0.2357 0.1179-0.0000 (  1368 PWs)   bands (ev):

   -87.5846 -87.5845 -87.5844  -8.0259  -7.9857  -7.9838  -7.9302  -7.9242
    -5.2310   3.4442   5.3786   6.0397   9.0613   9.9567  11.6156  11.9841

          k = 0.2946 0.1768-0.0589 (  1364 PWs)   bands (ev):

   -87.5846 -87.5845 -87.5844  -8.0399  -7.9817  -7.9793  -7.9307  -7.9233
    -4.8960   2.4222   4.8535   5.8088   9.1310  10.3888  12.0146  12.2329

          k = 0.3536 0.2357-0.1179 (  1372 PWs)   bands (ev):

   -87.5847 -87.5846 -87.5845  -8.0527  -7.9783  -7.9759  -7.9299  -7.9228
    -4.4905   1.4184   4.5280   5.5340   8.9925  10.8326  12.0836  12.7920

          k =-0.2946-0.4125 0.5303 (  1376 PWs)   bands (ev):

   -87.5847 -87.5846 -87.5846  -8.0615  -7.9764  -7.9736  -7.9280  -7.9229
    -4.1182   0.6541   4.3549   5.3279   8.8704  10.9185  12.0848  13.7712

          k =-0.2357-0.3536 0.4714 (  1380 PWs)   bands (ev):

   -87.5848 -87.5847 -87.5847  -8.0647  -7.9759  -7.9728  -7.9267  -7.9233
    -3.9558   0.3565   4.3013   5.2523   8.8254  10.9074  12.0718  14.4919

          k = 0.3536 0.1179 0.0000 (  1365 PWs)   bands (ev):

   -87.5846 -87.5844 -87.5844  -8.0485  -7.9761  -7.9746  -7.9347  -7.9214
    -4.7780   2.3279   4.7432   5.2794   9.1835   9.8992  12.3073  12.9768

          k = 0.4125 0.1768-0.0589 (  1373 PWs)   bands (ev):

   -87.5848 -87.5846 -87.5845  -8.0591  -7.9735  -7.9703  -7.9350  -7.9208
    -4.4051   1.5230   4.2314   5.0431   9.3422  10.3148  12.0695  13.3815

          k =-0.2357-0.4714 0.5893 (  1372 PWs)   bands (ev):

   -87.5847 -87.5846 -87.5845  -8.0664  -7.9726  -7.9676  -7.9334  -7.9212
    -4.0282   0.8127   3.8558   4.8703   9.3196  10.9511  12.1930  13.4638

          k =-0.1768-0.4125 0.5303 (  1376 PWs)   bands (ev):

   -87.5848 -87.5847 -87.5845  -8.0694  -7.9728  -7.9668  -7.9310  -7.9227
    -3.7960   0.4205   3.6150   4.8534   9.3345  11.0805  12.8007  13.7498

          k =-0.1179-0.3536 0.4714 (  1368 PWs)   bands (ev):

   -87.5847 -87.5846 -87.5845  -8.0675  -7.9736  -7.9679  -7.9296  -7.9240
    -3.8545   0.5208   3.5344   4.9972   9.4247  11.0873  12.7192  13.9075

          k =-0.0589-0.2946 0.4125 (  1369 PWs)   bands (ev):

   -87.5847 -87.5846 -87.5844  -8.0612  -7.9750  -7.9709  -7.9305  -7.9236
    -4.1611   1.0487   3.6664   5.2636   9.5485  11.0709  12.1342  13.2255

          k = 0.0000-0.2357 0.3536 (  1363 PWs)   bands (ev):

   -87.5847 -87.5845 -87.5843  -8.0514  -7.9776  -7.9750  -7.9313  -7.9231
    -4.5487   1.7557   4.0905   5.5785   9.5521  10.6538  11.9449  12.6616

          k = 0.4714 0.1179 0.0000 (  1369 PWs)   bands (ev):

   -87.5847 -87.5845 -87.5844  -8.0688  -7.9666  -7.9645  -7.9397  -7.9188
    -4.2164   1.2908   4.2605   4.6190   8.8353   9.6172  13.0904  14.4076

          k =-0.1768-0.5303 0.6482 (  1363 PWs)   bands (ev):

   -87.5846 -87.5845 -87.5844  -8.0745  -7.9661  -7.9614  -7.9389  -7.9191
    -3.8695   0.7426   3.7616   4.4402   9.0874  10.1278  12.8089  14.6867

          k =-0.1179-0.4714 0.5893 (  1369 PWs)   bands (ev):

   -87.5847 -87.5846 -87.5845  -8.0760  -7.9677  -7.9606  -7.9363  -7.9209
    -3.6197   0.3957   3.3136   4.4425   9.1793  11.2232  12.6405  14.4433

          k =-0.0589-0.4125 0.5303 (  1375 PWs)   bands (ev):

   -87.5848 -87.5846 -87.5846  -8.0737  -7.9701  -7.9620  -7.9331  -7.9233
    -3.6021   0.3851   3.0746   4.6133   9.3432  11.9270  12.8352  13.9877

          k =-0.0000-0.3536 0.4714 (  1363 PWs)   bands (ev):

   -87.5846 -87.5845 -87.5844  -8.0684  -7.9725  -7.9657  -7.9309  -7.9246
    -3.8248   0.6689   3.1641   4.9111   9.5524  11.9330  12.0832  14.0447

          k =-0.1179-0.5893 0.7071 (  1360 PWs)   bands (ev):

   -87.5845 -87.5844 -87.5844  -8.0825  -7.9593  -7.9569  -7.9433  -7.9172
    -3.6717   0.4568   3.9854   4.1662   8.6722   9.1147  14.3147  15.6611

          k =-0.0589-0.5303 0.6482 (  1368 PWs)   bands (ev):

   -87.5847 -87.5846 -87.5845  -8.0828  -7.9615  -7.9563  -7.9411  -7.9185
    -3.4717   0.2293   3.5020   4.1274   8.9146   9.8950  14.0231  15.1641

          k =-0.0000-0.4714 0.5893 (  1376 PWs)   bands (ev):

   -87.5848 -87.5847 -87.5846  -8.0794  -7.9657  -7.9579  -7.9374  -7.9210
    -3.4472   0.2387   3.0998   4.3023   9.0920  11.2105  13.6423  13.9648

          k =-0.7071 0.1179 0.0000 (  1364 PWs)   bands (ev):

   -87.5846 -87.5845 -87.5844  -8.0873  -7.9565  -7.9544  -7.9445  -7.9166
    -3.4165   0.1038   3.9268   3.9763   8.7069   8.8305  15.4858  15.5793

          k =-0.2357-0.4714 0.7071 (  1370 PWs)   bands (ev):

   -87.5847 -87.5846 -87.5844  -8.0670  -7.9716  -7.9657  -7.9351  -7.9212
    -4.0512   1.0017   3.6583   4.7495   9.9819  10.4096  11.7441  14.2618

          k =-0.1768-0.4125 0.6482 (  1371 PWs)   bands (ev):

   -87.5847 -87.5846 -87.5845  -8.0719  -7.9711  -7.9625  -7.9339  -7.9224
    -3.7356   0.5558   3.3324   4.4774  10.1089  10.9640  11.9159  14.5039

          k =-0.1179-0.3536 0.5893 (  1372 PWs)   bands (ev):

   -87.5848 -87.5846 -87.5845  -8.0735  -7.9711  -7.9614  -7.9330  -7.9232
    -3.6017   0.3707   3.2319   4.3714  10.1143  11.0045  12.6820  13.9342

          k =-0.1179-0.4714 0.7071 (  1370 PWs)   bands (ev):

   -87.5847 -87.5846 -87.5845  -8.0778  -7.9665  -7.9584  -7.9380  -7.9203
    -3.5941   0.4222   3.4771   4.0470   9.9294  10.1986  12.4930  14.9585

          k =-0.0589-0.4125 0.6482 (  1374 PWs)   bands (ev):

   -87.5847 -87.5847 -87.5845  -8.0779  -7.9681  -7.9575  -7.9360  -7.9221
    -3.4479   0.2753   3.2271   3.9180  10.1646  11.2467  12.2902  13.6117

          k = 0.0000-0.3536 0.5893 (  1374 PWs)   bands (ev):

   -87.5848 -87.5847 -87.5845  -8.0758  -7.9698  -7.9589  -7.9344  -7.9231
    -3.5075   0.3454   3.1235   4.1063  10.3276  11.6649  11.8818  13.5427

          k =-0.7071 0.2357 0.0000 (  1368 PWs)   bands (ev):

   -87.5846 -87.5846 -87.5845  -8.0816  -7.9643  -7.9559  -7.9389  -7.9201
    -3.3930   0.1864   3.5338   3.6767   9.9376  10.0169  13.5870  13.8993

          k =-0.7071 0.3536 0.0000 (  1384 PWs)   bands (ev):

   -87.5848 -87.5847 -87.5847  -8.0784  -7.9685  -7.9565  -7.9356  -7.9227
    -3.3811   0.2314   3.3569   3.5465  11.0461  11.3525  11.9247  12.6846

     the Fermi energy is     6.6941 ev

!    total energy              =    -455.66460332 Ry
     estimated scf accuracy    <          4.6E-10 Ry
     smearing contrib. (-TS)   =       0.00001583 Ry
     internal energy E=F+TS    =    -455.66461915 Ry

     The total energy is F=E-TS. E is the sum of the following terms:
     one-electron contribution =    -412.29137962 Ry
     hartree contribution      =     213.62324380 Ry
     xc contribution           =     -80.10178209 Ry
     ewald contribution        =    -176.89470124 Ry

     convergence has been achieved in  17 iterations

     Forces acting on atoms (cartesian axes, Ry/au):

     atom    1 type  1   force =     0.00000000   -0.00000000    0.00000000
     atom    2 type  2   force =    -0.00000000    0.00000000    0.00000000

     Total force =     0.000000     Total SCF correction =     0.000000

     Writing all to output data dir ./data/scf.save/
 
     init_run     :      0.44s CPU      0.59s WALL (       1 calls)
     electrons    :      8.06s CPU      8.21s WALL (       1 calls)
     forces       :      0.09s CPU      0.09s WALL (       1 calls)

     Called by init_run:
     wfcinit      :      0.11s CPU      0.15s WALL (       1 calls)
     potinit      :      0.04s CPU      0.06s WALL (       1 calls)
     hinit0       :      0.24s CPU      0.33s WALL (       1 calls)

     Called by electrons:
     c_bands      :      5.59s CPU      5.66s WALL (      17 calls)
     sum_band     :      1.41s CPU      1.44s WALL (      17 calls)
     v_of_rho     :      0.61s CPU      0.62s WALL (      18 calls)
     newd         :      0.39s CPU      0.41s WALL (      18 calls)
     mix_rho      :      0.06s CPU      0.07s WALL (      17 calls)

     Called by c_bands:
     init_us_2    :      0.10s CPU      0.11s WALL (     396 calls)
     init_us_2:cp :      0.10s CPU      0.10s WALL (     396 calls)
     cegterg      :      4.81s CPU      4.85s WALL (     187 calls)

     Called by *egterg:
     cdiaghg      :      0.12s CPU      0.13s WALL (     627 calls)
     h_psi        :      4.28s CPU      4.33s WALL (     638 calls)
     s_psi        :      0.10s CPU      0.10s WALL (     638 calls)
     g_psi        :      0.02s CPU      0.02s WALL (     440 calls)

     Called by h_psi:
     h_psi:calbec :      0.10s CPU      0.13s WALL (     638 calls)
     vloc_psi     :      4.06s CPU      4.09s WALL (     638 calls)
     add_vuspsi   :      0.10s CPU      0.11s WALL (     638 calls)

     General routines
     calbec       :      0.14s CPU      0.17s WALL (     869 calls)
     fft          :      0.29s CPU      0.31s WALL (     243 calls)
     ffts         :      0.01s CPU      0.02s WALL (      35 calls)
     fftw         :      4.50s CPU      4.53s WALL (   18742 calls)
     interpolate  :      0.03s CPU      0.04s WALL (      18 calls)
 
     Parallel routines
 
     PWSCF        :      8.75s CPU      9.33s WALL

 
   This run was terminated on:  22:17: 5  10Jun2026            

=------------------------------------------------------------------------------=
   JOB DONE.
=------------------------------------------------------------------------------=
