
     Program PWSCF v.7.4.1 starts on  7Jul2025 at 14:41:57 

     This program is part of the open-source Quantum ESPRESSO suite
     for quantum simulation of materials; please cite
         "P. Giannozzi et al., J. Phys.:Condens. Matter 21 395502 (2009);
         "P. Giannozzi et al., J. Phys.:Condens. Matter 29 465901 (2017);
         "P. Giannozzi et al., J. Chem. Phys. 152 154105 (2020);
          URL http://www.quantum-espresso.org", 
     in publications or presentations arising from this work. More details at
     http://www.quantum-espresso.org/quote

     Parallel version (MPI & OpenMP), running on     100 processor cores
     Number of MPI processes:               100
     Threads/MPI process:                     1

     MPI processes distributed on     1 nodes
     3054725 MiB available memory on the printing compute node when the environment starts
 
     Waiting for input...
     Reading input from standard input

     Current dimensions of program PWSCF are:
     Max number of different atomic species (ntypx) = 10
     Max number of k-points (npk) =  40000
     Max angular momentum in pseudopotentials (lmaxx) =  4
     Message from routine setup:
     using ibrav=0 with symmetry is DISCOURAGED, use correct ibrav instead
 
     K-points division:     npool     =       2
     R & G space division:  proc/nbgrp/npool/nimage =      50
     Subspace diagonalization in iterative solution of the eigenvalue problem:
     a serial algorithm will be used

 
     Parallelization info
     --------------------
     sticks:   dense  smooth     PW     G-vecs:    dense   smooth      PW
     Min         149      71     17                10703     3557     441
     Max         150      72     18                10707     3564     448
     Sum        7455    3569    891               535233   177971   22259
 
     Using Slab Decomposition
 


     bravais-lattice index     =            0
     lattice parameter (alat)  =      13.2281  a.u.
     unit-cell volume          =    2834.3005 (a.u.)^3
     number of atoms/cell      =            2
     number of atomic types    =            1
     number of electrons       =        12.00
     number of Kohn-Sham states=           10
     kinetic-energy cutoff     =      60.0000  Ry
     charge density cutoff     =     500.0000  Ry
     scf convergence threshold =      1.0E-08
     mixing beta               =       0.7000
     number of iterations used =            8  plain     mixing
     energy convergence thresh.=      1.0E-04
     force convergence thresh. =      1.0E-03
     Exchange-correlation= SLA  PZ   NOGX NOGC
                           (   1   1   0   0   0   0   0)
     nstep                     =           50


     celldm(1)=  13.228083  celldm(2)=   0.000000  celldm(3)=   0.000000
     celldm(4)=   0.000000  celldm(5)=   0.000000  celldm(6)=   0.000000

     crystal axes: (cart. coord. in units of alat)
               a(1) = (   1.000000   0.000000   0.000000 )  
               a(2) = (   0.000000   1.071429   0.000000 )  
               a(3) = (   0.000000   0.000000   1.142857 )  

     reciprocal axes: (cart. coord. in units 2 pi/alat)
               b(1) = (  1.000000  0.000000  0.000000 )  
               b(2) = (  0.000000  0.933333  0.000000 )  
               b(3) = (  0.000000  0.000000  0.875000 )  


     PseudoPot. # 1 for O  read from file:
     /home/m0049/m004905/PSPOT/o_lda_v1.2.uspp.F.UPF
     MD5 check sum: 194b818514d2a7dbb603bb78519a4f40
     Pseudo is Ultrasoft + core correction, Zval =  6.0
     Generated by new atomic code, or converted to UPF format
     Using radial grid of  737 points,  5 beta functions with: 
                l(1) =   0
                l(2) =   0
                l(3) =   1
                l(4) =   1
                l(5) =   2
     Q(r) pseudized with  8 coefficients,  rinner =    0.900   0.900   0.900
                                                       0.900   0.900

     atomic species   valence    mass     pseudopotential
     O                 6.00    15.99900     O ( 1.00)

     Starting magnetic structure 
     atomic species   magnetization
     O               0.800

      4 Sym. Ops. (no inversion) found



   Cartesian axes

     site n.     atom                  positions (alat units)
         1        O      tau(   1) = (   0.0000000   0.0000000   0.0000000  )
         2        O      tau(   2) = (   0.0000000   0.0000000   0.1728571  )

     number of k points=     1  Methfessel-Paxton smearing, width (Ry)=  0.0100
                       cart. coord. in units 2pi/alat
        k(    1) = (   0.0000000   0.0000000   0.0000000), wk =   1.0000000

     Dense  grid:   535233 G-vectors     FFT dimensions: (  96, 108, 108)

     Smooth grid:   177971 G-vectors     FFT dimensions: (  72,  72,  75)

     Estimated max dynamical RAM per process >      22.60 MB

     Estimated total dynamical RAM >       1.95 GB
     Generating pointlists ...
     new r_m :   0.0713 (alat units)  0.9432 (a.u.) for type    1

     Initial potential from superposition of free atoms

     starting charge      12.0000, renormalised to      12.0000

     negative rho (up, down):  6.173E-05 6.859E-06
     Starting wfcs are    8 randomized atomic wfcs +    2 random wfcs

     total cpu time spent up to now is        0.8 secs

     Self-consistent Calculation

     iteration #  1     ecut=    60.00 Ry     beta= 0.70
     Davidson diagonalization with overlap
     ethr =  1.00E-02,  avg # of iterations =  6.5

     negative rho (up, down):  1.106E-04 2.033E-05

     total cpu time spent up to now is        7.5 secs

     total energy              =     -64.10450013 Ry
     estimated scf accuracy    <       0.53259612 Ry

     total magnetization       =     2.00 Bohr mag/cell
     absolute magnetization    =     2.29 Bohr mag/cell

     iteration #  2     ecut=    60.00 Ry     beta= 0.70
     Davidson diagonalization with overlap
     ethr =  4.44E-03,  avg # of iterations =  1.5

     negative rho (up, down):  3.292E-04 7.990E-05

     total cpu time spent up to now is        7.6 secs

     total energy              =     -64.21359293 Ry
     estimated scf accuracy    <       0.06448734 Ry

     total magnetization       =     2.00 Bohr mag/cell
     absolute magnetization    =     2.09 Bohr mag/cell

     iteration #  3     ecut=    60.00 Ry     beta= 0.70
     Davidson diagonalization with overlap
     ethr =  5.37E-04,  avg # of iterations =  3.0

     negative rho (up, down):  2.305E-04 7.557E-05

     total cpu time spent up to now is        7.7 secs

     total energy              =     -64.21950035 Ry
     estimated scf accuracy    <       0.00335295 Ry

     total magnetization       =     2.00 Bohr mag/cell
     absolute magnetization    =     2.04 Bohr mag/cell

     iteration #  4     ecut=    60.00 Ry     beta= 0.70
     Davidson diagonalization with overlap
     ethr =  2.79E-05,  avg # of iterations =  6.5

     negative rho (up, down):  2.087E-04 8.189E-05

     total cpu time spent up to now is        7.8 secs

     total energy              =     -64.22042146 Ry
     estimated scf accuracy    <       0.00007298 Ry

     total magnetization       =     2.00 Bohr mag/cell
     absolute magnetization    =     2.04 Bohr mag/cell

     iteration #  5     ecut=    60.00 Ry     beta= 0.70
     Davidson diagonalization with overlap
     ethr =  6.08E-07,  avg # of iterations = 10.5

     negative rho (up, down):  2.059E-04 8.403E-05

     total cpu time spent up to now is        7.9 secs

     total energy              =     -64.22045261 Ry
     estimated scf accuracy    <       0.00001087 Ry

     total magnetization       =     2.00 Bohr mag/cell
     absolute magnetization    =     2.04 Bohr mag/cell

     iteration #  6     ecut=    60.00 Ry     beta= 0.70
     Davidson diagonalization with overlap
     ethr =  9.06E-08,  avg # of iterations =  3.0

     negative rho (up, down):  2.052E-04 8.473E-05

     total cpu time spent up to now is        7.9 secs

     total energy              =     -64.22045413 Ry
     estimated scf accuracy    <       0.00003061 Ry

     total magnetization       =     2.00 Bohr mag/cell
     absolute magnetization    =     2.04 Bohr mag/cell

     iteration #  7     ecut=    60.00 Ry     beta= 0.70
     Davidson diagonalization with overlap
     ethr =  9.06E-08,  avg # of iterations =  2.0

     negative rho (up, down):  2.053E-04 8.462E-05

     total cpu time spent up to now is        8.0 secs

     total energy              =     -64.22045862 Ry
     estimated scf accuracy    <       0.00000016 Ry

     total magnetization       =     2.00 Bohr mag/cell
     absolute magnetization    =     2.04 Bohr mag/cell

     iteration #  8     ecut=    60.00 Ry     beta= 0.70
     Davidson diagonalization with overlap
     ethr =  1.32E-09,  avg # of iterations =  3.0

     negative rho (up, down):  2.053E-04 8.463E-05

     total cpu time spent up to now is        8.1 secs

     total energy              =     -64.22045870 Ry
     estimated scf accuracy    <       0.00000006 Ry

     total magnetization       =     2.00 Bohr mag/cell
     absolute magnetization    =     2.04 Bohr mag/cell

     iteration #  9     ecut=    60.00 Ry     beta= 0.70
     Davidson diagonalization with overlap
     ethr =  4.98E-10,  avg # of iterations =  1.0

     negative rho (up, down):  2.054E-04 8.463E-05
 
     Magnetic moment per site  (integrated on atomic sphere of radius R)
     atom   1 (R=0.071)  charge=  2.9080  magn=  0.5682
     atom   2 (R=0.071)  charge=  2.9112  magn=  0.5684

     total cpu time spent up to now is        8.2 secs

     End of self-consistent calculation

 ------ SPIN UP ------------


          k = 0.0000 0.0000 0.0000 ( 22259 PWs)   bands (ev):

   -32.4687 -19.8863 -13.4221 -13.2784 -13.2782  -6.4807  -6.4804  -0.2486
     1.6857   2.0083

 ------ SPIN DOWN ----------


          k = 0.0000 0.0000 0.0000 ( 22259 PWs)   bands (ev):

   -31.1837 -18.1459 -12.1986 -11.5480 -11.5477  -4.3962  -4.3954  -0.1910
     1.8704   2.0299

     the Fermi energy is    -5.3329 ev

!    total energy              =     -64.22045869 Ry
     estimated scf accuracy    <          7.4E-09 Ry
     smearing contrib. (-TS)   =       0.00000000 Ry
     internal energy E=F+TS    =     -64.22045869 Ry

     The total energy is F=E-TS. E is the sum of the following terms:
     one-electron contribution =    -110.23611677 Ry
     hartree contribution      =      56.97521796 Ry
     xc contribution           =     -13.91432916 Ry
     ewald contribution        =       2.95476927 Ry

     total magnetization       =     2.00 Bohr mag/cell
     absolute magnetization    =     2.04 Bohr mag/cell

     convergence has been achieved in   9 iterations

     negative rho (up, down):  2.054E-04 8.463E-05

     Forces acting on atoms (cartesian axes, Ry/au):

     atom    1 type  1   force =     0.00000000    0.00000000   -0.00010209
     atom    2 type  1   force =     0.00000000    0.00000000    0.00010209

     Total force =     0.000144     Total SCF correction =     0.000218
     SCF correction compared to forces is large: reduce conv_thr to get better values


     Computing stress (Cartesian axis) and pressure


     negative rho (up, down):  2.054E-04 8.463E-05
          total   stress  (Ry/bohr**3)                   (kbar)     P=       -0.06
  -0.00000027   0.00000000   0.00000000           -0.04        0.00        0.00
   0.00000000  -0.00000039   0.00000000            0.00       -0.06        0.00
   0.00000000   0.00000000  -0.00000057            0.00        0.00       -0.08


     BFGS Geometry Optimization
     Energy error            =      2.1E-08 Ry
     Gradient error          =      1.0E-04 Ry/Bohr

     bfgs converged in   1 scf cycles and   0 bfgs steps
     (criteria: energy <  1.0E-04 Ry, force <  1.0E-03 Ry/Bohr)

     End of BFGS Geometry Optimization

     Final energy             =     -64.2204586943 Ry
Begin final coordinates

ATOMIC_POSITIONS (angstrom)
O                0.0000000000        0.0000000000        0.0000000000
O                0.0000000000        0.0000000000        1.2100000000
End final coordinates



     Writing all to output data dir ./out/oxygen_sys.save/ :
     XML data file, charge density, pseudopotentials, collected wavefunctions
 
     init_run     :      0.28s CPU      0.72s WALL (       1 calls)
     electrons    :      2.77s CPU      7.50s WALL (       1 calls)
     forces       :      0.03s CPU      0.04s WALL (       1 calls)
     stress       :      0.06s CPU      0.07s WALL (       1 calls)

     Called by init_run:
     wfcinit      :      0.01s CPU      0.02s WALL (       1 calls)
     potinit      :      0.01s CPU      0.02s WALL (       1 calls)
     hinit0       :      0.03s CPU      0.04s WALL (       1 calls)

     Called by electrons:
     c_bands      :      0.11s CPU      2.21s WALL (       9 calls)
     sum_band     :      2.41s CPU      4.83s WALL (       9 calls)
     v_of_rho     :      0.05s CPU      0.06s WALL (      10 calls)
     newd         :      0.13s CPU      0.54s WALL (      10 calls)
     mix_rho      :      0.03s CPU      0.04s WALL (       9 calls)

     Called by c_bands:
     init_us_2    :      0.00s CPU      0.00s WALL (      20 calls)
     cegterg      :      0.09s CPU      2.20s WALL (       9 calls)

     Called by *egterg:
     cdiaghg      :      0.01s CPU      2.10s WALL (      48 calls)
     h_psi        :      0.08s CPU      0.10s WALL (      49 calls)
     s_psi        :      0.00s CPU      0.00s WALL (      49 calls)
     g_psi        :      0.00s CPU      0.00s WALL (      39 calls)

     Called by h_psi:
     h_psi:calbec :      0.00s CPU      0.01s WALL (      49 calls)
     vloc_psi     :      0.07s CPU      0.09s WALL (      49 calls)
                                        0.00s GPU  (      49 calls)
     add_vuspsi   :      0.00s CPU      0.00s WALL (      49 calls)

     General routines
     calbec       :      0.01s CPU      0.01s WALL (      75 calls)
     fft          :      0.08s CPU      0.08s WALL (     114 calls)
     ffts         :      0.02s CPU      0.02s WALL (      38 calls)
     fftw         :      0.08s CPU      0.09s WALL (     626 calls)
     interpolate  :      0.02s CPU      0.03s WALL (      20 calls)
 
     Parallel routines
 
     PWSCF        :      3.26s CPU      8.83s WALL

 
   This run was terminated on:  14:42: 6   7Jul2025            

=------------------------------------------------------------------------------=
   JOB DONE.
=------------------------------------------------------------------------------=
