
     Program PWSCF v.7.4.1 starts on  7Jul2025 at 14:41:14 

     This program is part of the open-source Quantum ESPRESSO suite
     for quantum simulation of materials; please cite
         "P. Giannozzi et al., J. Phys.:Condens. Matter 21 395502 (2009);
         "P. Giannozzi et al., J. Phys.:Condens. Matter 29 465901 (2017);
         "P. Giannozzi et al., J. Chem. Phys. 152 154105 (2020);
          URL http://www.quantum-espresso.org", 
     in publications or presentations arising from this work. More details at
     http://www.quantum-espresso.org/quote

     Parallel version (MPI & OpenMP), running on     100 processor cores
     Number of MPI processes:               100
     Threads/MPI process:                     1

     MPI processes distributed on     1 nodes
     3054800 MiB available memory on the printing compute node when the environment starts
 
     Waiting for input...
     Reading input from standard input

     Current dimensions of program PWSCF are:
     Max number of different atomic species (ntypx) = 10
     Max number of k-points (npk) =  40000
     Max angular momentum in pseudopotentials (lmaxx) =  4
     Message from routine setup:
     using ibrav=0 with symmetry is DISCOURAGED, use correct ibrav instead
 
     K-points division:     npool     =       2
     R & G space division:  proc/nbgrp/npool/nimage =      50
     Subspace diagonalization in iterative solution of the eigenvalue problem:
     a serial algorithm will be used

 
     Parallelization info
     --------------------
     sticks:   dense  smooth     PW     G-vecs:    dense   smooth      PW
     Min         149      71     17                10703     3557     441
     Max         150      72     18                10707     3564     448
     Sum        7455    3569    891               535233   177971   22259
 
     Using Slab Decomposition
 


     bravais-lattice index     =            0
     lattice parameter (alat)  =      13.2281  a.u.
     unit-cell volume          =    2834.3005 (a.u.)^3
     number of atoms/cell      =            1
     number of atomic types    =            1
     number of electrons       =         6.00
     number of Kohn-Sham states=            7
     kinetic-energy cutoff     =      60.0000  Ry
     charge density cutoff     =     500.0000  Ry
     scf convergence threshold =      1.0E-08
     mixing beta               =       0.7000
     number of iterations used =            8  plain     mixing
     energy convergence thresh.=      1.0E-04
     force convergence thresh. =      1.0E-03
     Exchange-correlation= SLA  PZ   NOGX NOGC
                           (   1   1   0   0   0   0   0)
     nstep                     =           50


     celldm(1)=  13.228083  celldm(2)=   0.000000  celldm(3)=   0.000000
     celldm(4)=   0.000000  celldm(5)=   0.000000  celldm(6)=   0.000000

     crystal axes: (cart. coord. in units of alat)
               a(1) = (   1.000000   0.000000   0.000000 )  
               a(2) = (   0.000000   1.071429   0.000000 )  
               a(3) = (   0.000000   0.000000   1.142857 )  

     reciprocal axes: (cart. coord. in units 2 pi/alat)
               b(1) = (  1.000000  0.000000  0.000000 )  
               b(2) = (  0.000000  0.933333  0.000000 )  
               b(3) = (  0.000000  0.000000  0.875000 )  


     PseudoPot. # 1 for O  read from file:
     /home/m0049/m004905/PSPOT/o_lda_v1.2.uspp.F.UPF
     MD5 check sum: 194b818514d2a7dbb603bb78519a4f40
     Pseudo is Ultrasoft + core correction, Zval =  6.0
     Generated by new atomic code, or converted to UPF format
     Using radial grid of  737 points,  5 beta functions with: 
                l(1) =   0
                l(2) =   0
                l(3) =   1
                l(4) =   1
                l(5) =   2
     Q(r) pseudized with  8 coefficients,  rinner =    0.900   0.900   0.900
                                                       0.900   0.900

     atomic species   valence    mass     pseudopotential
     O                 6.00    15.99900     O ( 1.00)

     Starting magnetic structure 
     atomic species   magnetization
     O               0.800

      8 Sym. Ops., with inversion, found



   Cartesian axes

     site n.     atom                  positions (alat units)
         1        O      tau(   1) = (   0.0000000   0.0000000   0.0000000  )

     number of k points=     1  Methfessel-Paxton smearing, width (Ry)=  0.0100
                       cart. coord. in units 2pi/alat
        k(    1) = (   0.0000000   0.0000000   0.0000000), wk =   1.0000000

     Dense  grid:   535233 G-vectors     FFT dimensions: (  96, 108, 108)

     Smooth grid:   177971 G-vectors     FFT dimensions: (  72,  72,  75)

     Estimated max dynamical RAM per process >      22.49 MB

     Estimated total dynamical RAM >       1.94 GB
     Generating pointlists ...
     new r_m :   0.4125 (alat units)  5.4566 (a.u.) for type    1

     Initial potential from superposition of free atoms

     starting charge       6.0000, renormalised to       6.0000

     negative rho (up, down):  6.205E-05 6.895E-06
     Starting wfcs are    4 randomized atomic wfcs +    3 random wfcs

     total cpu time spent up to now is       25.1 secs

     Self-consistent Calculation

     iteration #  1     ecut=    60.00 Ry     beta= 0.70
     Davidson diagonalization with overlap
     ethr =  1.00E-02,  avg # of iterations =  6.0

     negative rho (up, down):  3.163E-05 5.158E-08

     total cpu time spent up to now is       27.7 secs

     total energy              =     -31.80131254 Ry
     estimated scf accuracy    <       0.11015642 Ry

     total magnetization       =     2.00 Bohr mag/cell
     absolute magnetization    =     2.05 Bohr mag/cell

     iteration #  2     ecut=    60.00 Ry     beta= 0.70
     Davidson diagonalization with overlap
     ethr =  1.84E-03,  avg # of iterations =  1.5

     negative rho (up, down):  2.234E-04 1.580E-05

     total cpu time spent up to now is       29.3 secs

     total energy              =     -31.83015841 Ry
     estimated scf accuracy    <       0.01499970 Ry

     total magnetization       =     2.00 Bohr mag/cell
     absolute magnetization    =     2.01 Bohr mag/cell

     iteration #  3     ecut=    60.00 Ry     beta= 0.70
     Davidson diagonalization with overlap
     ethr =  2.50E-04,  avg # of iterations =  4.0

     negative rho (up, down):  1.182E-04 1.187E-05

     total cpu time spent up to now is       29.9 secs

     total energy              =     -31.83248918 Ry
     estimated scf accuracy    <       0.00113797 Ry

     total magnetization       =     2.00 Bohr mag/cell
     absolute magnetization    =     2.00 Bohr mag/cell

     iteration #  4     ecut=    60.00 Ry     beta= 0.70
     Davidson diagonalization with overlap
     ethr =  1.90E-05,  avg # of iterations = 12.5

     negative rho (up, down):  9.496E-05 1.666E-05

     total cpu time spent up to now is       30.0 secs

     total energy              =     -31.83275563 Ry
     estimated scf accuracy    <       0.00027288 Ry

     total magnetization       =     2.00 Bohr mag/cell
     absolute magnetization    =     2.00 Bohr mag/cell

     iteration #  5     ecut=    60.00 Ry     beta= 0.70
     Davidson diagonalization with overlap
     ethr =  4.55E-06,  avg # of iterations =  2.0

     negative rho (up, down):  9.463E-05 2.715E-05

     total cpu time spent up to now is       30.1 secs

     total energy              =     -31.83249457 Ry
     estimated scf accuracy    <       0.00051201 Ry

     total magnetization       =     2.00 Bohr mag/cell
     absolute magnetization    =     2.00 Bohr mag/cell

     iteration #  6     ecut=    60.00 Ry     beta= 0.70
     Davidson diagonalization with overlap
     ethr =  4.55E-06,  avg # of iterations =  1.5

     negative rho (up, down):  9.233E-05 1.445E-05

     total cpu time spent up to now is       30.1 secs

     total energy              =     -31.83262905 Ry
     estimated scf accuracy    <       0.00006850 Ry

     total magnetization       =     2.00 Bohr mag/cell
     absolute magnetization    =     2.00 Bohr mag/cell

     iteration #  7     ecut=    60.00 Ry     beta= 0.70
     Davidson diagonalization with overlap
     ethr =  1.14E-06,  avg # of iterations =  1.5

     negative rho (up, down):  9.241E-05 7.081E-06

     total cpu time spent up to now is       30.2 secs

     total energy              =     -31.83267204 Ry
     estimated scf accuracy    <       0.00002038 Ry

     total magnetization       =     2.00 Bohr mag/cell
     absolute magnetization    =     2.00 Bohr mag/cell

     iteration #  8     ecut=    60.00 Ry     beta= 0.70
     Davidson diagonalization with overlap
     ethr =  3.40E-07,  avg # of iterations =  1.0

     negative rho (up, down):  9.234E-05 6.234E-06

     total cpu time spent up to now is       30.3 secs

     total energy              =     -31.83265576 Ry
     estimated scf accuracy    <       0.00001429 Ry

     total magnetization       =     2.00 Bohr mag/cell
     absolute magnetization    =     2.00 Bohr mag/cell

     iteration #  9     ecut=    60.00 Ry     beta= 0.70
     Davidson diagonalization with overlap
     ethr =  2.38E-07,  avg # of iterations =  1.5

     negative rho (up, down):  9.224E-05 4.869E-06

     total cpu time spent up to now is       30.3 secs

     total energy              =     -31.83266404 Ry
     estimated scf accuracy    <       0.00000895 Ry

     total magnetization       =     2.00 Bohr mag/cell
     absolute magnetization    =     2.00 Bohr mag/cell

     iteration # 10     ecut=    60.00 Ry     beta= 0.70
     Davidson diagonalization with overlap
     ethr =  1.49E-07,  avg # of iterations =  1.5

     negative rho (up, down):  9.223E-05 4.666E-06

     total cpu time spent up to now is       30.4 secs

     total energy              =     -31.83266897 Ry
     estimated scf accuracy    <       0.00000014 Ry

     total magnetization       =     2.00 Bohr mag/cell
     absolute magnetization    =     2.00 Bohr mag/cell

     iteration # 11     ecut=    60.00 Ry     beta= 0.70
     Davidson diagonalization with overlap
     ethr =  2.28E-09,  avg # of iterations =  2.0

     negative rho (up, down):  9.223E-05 4.646E-06

     total cpu time spent up to now is       30.5 secs

     total energy              =     -31.83266908 Ry
     estimated scf accuracy    <       0.00000012 Ry

     total magnetization       =     2.00 Bohr mag/cell
     absolute magnetization    =     2.00 Bohr mag/cell

     iteration # 12     ecut=    60.00 Ry     beta= 0.70
     Davidson diagonalization with overlap
     ethr =  2.05E-09,  avg # of iterations =  1.5

     negative rho (up, down):  9.223E-05 4.646E-06

     total cpu time spent up to now is       30.5 secs

     total energy              =     -31.83266911 Ry
     estimated scf accuracy    <       0.00000002 Ry

     total magnetization       =     2.00 Bohr mag/cell
     absolute magnetization    =     2.00 Bohr mag/cell

     iteration # 13     ecut=    60.00 Ry     beta= 0.70
     Davidson diagonalization with overlap
     ethr =  2.97E-10,  avg # of iterations =  1.5

     negative rho (up, down):  9.223E-05 4.651E-06
 
     Magnetic moment per site  (integrated on atomic sphere of radius R)
     atom   1 (R=0.413)  charge=  5.9991  magn=  2.0001

     total cpu time spent up to now is       30.6 secs

     End of self-consistent calculation

 ------ SPIN UP ------------


          k = 0.0000 0.0000 0.0000 ( 22259 PWs)   bands (ev):

   -24.6765 -10.1427 -10.1378 -10.1270  -0.4731   1.8626   1.9691

 ------ SPIN DOWN ----------


          k = 0.0000 0.0000 0.0000 ( 22259 PWs)   bands (ev):

   -21.5494  -7.1313  -7.1303  -7.1299  -0.4016   1.9702   2.0253

     the Fermi energy is    -7.1579 ev

!    total energy              =     -31.83266912 Ry
     estimated scf accuracy    <          1.3E-10 Ry
     smearing contrib. (-TS)   =      -0.00373335 Ry
     internal energy E=F+TS    =     -31.82893577 Ry

     The total energy is F=E-TS. E is the sum of the following terms:
     one-electron contribution =     -38.22418141 Ry
     hartree contribution      =      20.30089184 Ry
     xc contribution           =      -6.72087474 Ry
     ewald contribution        =      -7.18477147 Ry

     total magnetization       =     2.00 Bohr mag/cell
     absolute magnetization    =     2.00 Bohr mag/cell

     convergence has been achieved in  13 iterations

     negative rho (up, down):  9.223E-05 4.651E-06

     Forces acting on atoms (cartesian axes, Ry/au):

     atom    1 type  1   force =     0.00000000    0.00000000    0.00000000

     Total force =     0.000000     Total SCF correction =     0.000000


     Computing stress (Cartesian axis) and pressure


     negative rho (up, down):  9.223E-05 4.651E-06
          total   stress  (Ry/bohr**3)                   (kbar)     P=       -0.02
  -0.00000002   0.00000000   0.00000000           -0.00        0.00        0.00
   0.00000000  -0.00000014   0.00000000            0.00       -0.02        0.00
   0.00000000   0.00000000  -0.00000019            0.00        0.00       -0.03


     BFGS Geometry Optimization
     Energy error            =      0.0E+00 Ry
     Gradient error          =      0.0E+00 Ry/Bohr

     bfgs converged in   1 scf cycles and   0 bfgs steps
     (criteria: energy <  1.0E-04 Ry, force <  1.0E-03 Ry/Bohr)

     End of BFGS Geometry Optimization

     Final energy             =     -31.8326691186 Ry
Begin final coordinates

ATOMIC_POSITIONS (angstrom)
O                0.0000000000        0.0000000000        0.0000000000
End final coordinates



     Writing all to output data dir ./out/oxygen_sys.save/ :
     XML data file, charge density, pseudopotentials, collected wavefunctions
 
     init_run     :      0.65s CPU     19.48s WALL (       1 calls)
     electrons    :      0.82s CPU      5.84s WALL (       1 calls)
     forces       :      0.03s CPU      0.03s WALL (       1 calls)
     stress       :      0.06s CPU      1.10s WALL (       1 calls)

     Called by init_run:
     wfcinit      :      0.01s CPU      5.63s WALL (       1 calls)
     potinit      :      0.02s CPU      4.99s WALL (       1 calls)
     hinit0       :      0.02s CPU      6.28s WALL (       1 calls)

     Called by electrons:
     c_bands      :      0.11s CPU      2.75s WALL (      13 calls)
     sum_band     :      0.36s CPU      1.29s WALL (      13 calls)
     v_of_rho     :      0.07s CPU      0.55s WALL (      14 calls)
     newd         :      0.16s CPU      2.09s WALL (      14 calls)
     mix_rho      :      0.06s CPU      1.08s WALL (      13 calls)

     Called by c_bands:
     init_us_2    :      0.00s CPU      0.00s WALL (      28 calls)
     cegterg      :      0.09s CPU      2.73s WALL (      13 calls)

     Called by *egterg:
     cdiaghg      :      0.01s CPU      6.15s WALL (      54 calls)
     h_psi        :      0.08s CPU      1.90s WALL (      55 calls)
     s_psi        :      0.00s CPU      0.00s WALL (      55 calls)
     g_psi        :      0.00s CPU      0.00s WALL (      41 calls)

     Called by h_psi:
     h_psi:calbec :      0.00s CPU      1.73s WALL (      55 calls)
     vloc_psi     :      0.07s CPU      0.16s WALL (      55 calls)
                                        0.00s GPU  (      55 calls)
     add_vuspsi   :      0.00s CPU      0.00s WALL (      55 calls)

     General routines
     calbec       :      0.01s CPU      1.73s WALL (      85 calls)
     fft          :      0.10s CPU      5.43s WALL (     158 calls)
     ffts         :      0.03s CPU      2.98s WALL (      54 calls)
     fftw         :      0.08s CPU      0.17s WALL (     593 calls)
     interpolate  :      0.03s CPU      4.53s WALL (      28 calls)
 
     Parallel routines
 
     PWSCF        :      1.67s CPU     32.38s WALL

 
   This run was terminated on:  14:41:46   7Jul2025            

=------------------------------------------------------------------------------=
   JOB DONE.
=------------------------------------------------------------------------------=
