
     Program BANDS v.7.1 starts on 10Jun2026 at 21:40: 1 

     This program is part of the open-source Quantum ESPRESSO suite
     for quantum simulation of materials; please cite
         "P. Giannozzi et al., J. Phys.:Condens. Matter 21 395502 (2009);
         "P. Giannozzi et al., J. Phys.:Condens. Matter 29 465901 (2017);
         "P. Giannozzi et al., J. Chem. Phys. 152 154105 (2020);
          URL http://www.quantum-espresso.org", 
     in publications or presentations arising from this work. More details at
     http://www.quantum-espresso.org/quote

     Parallel version (MPI & OpenMP), running on       7 processor cores
     Number of MPI processes:                 7
     Threads/MPI process:                     1

     MPI processes distributed on     7 nodes
     R & G space division:  proc/nbgrp/npool/nimage =       7
     224165 MiB available memory on the printing compute node when the environment starts
 

     Reading xml data from directory:

     ./data/scf.save/

     IMPORTANT: XC functional enforced from input :
     Exchange-correlation= PBE
                           (   1   4   3   4   0   0   0)
     Any further DFT definition will be discarded
     Please, verify this is what you really want

 
     Parallelization info
     --------------------
     sticks:   dense  smooth     PW     G-vecs:    dense   smooth      PW
     Min         211      83     28                 5302     1338     261
     Max         212      84     29                 5304     1342     264
     Sum        1483     583    199                37117     9377    1837
 
     Using Slab Decomposition
 
     Reading collected, re-writing distributed wavefunctions
     high-symmetry point:  0.3536-0.3536 0.3536   x coordinate   0.0000
     high-symmetry point:  0.0000 0.0000 0.0000   x coordinate   0.6124
     high-symmetry point:  0.0000-0.7071 0.0000   x coordinate   1.3195
     high-symmetry point: -0.7071-0.7071 0.7071   x coordinate   2.3195

     Plottable bands (eV) written to file Si.band.gnu
     Bands written to file Si.band

 **************************************************************************

                    xk=(   0.35355,  -0.35355,   0.35355  )

     zone border point and non-symmorphic group 
     symmetry decomposition not available

 **************************************************************************

 **************************************************************************

                    xk=(   0.34471,  -0.34471,   0.34471  )

     point group C_3v (3m)  
     there are  3 classes
     the character table:

       E     2C3   3s_v 
A_1    1.00  1.00  1.00
A_2    1.00  1.00 -1.00
E      2.00 -1.00  0.00

     the symmetry operations in each class and the name of the first element:

     E        1
                                                                 
     2C3      2    3
                                                                 
     3s_v     4    5    6
                                                                 

     Band symmetry, C_3v (3m)   point group:

     e(  1 -  1) =     -3.54287  eV     1   --> A_1  L_1       
     e(  2 -  2) =     -0.85491  eV     1   --> A_1  L_1       
     e(  3 -  4) =      4.84104  eV     2   --> E    L_3       
     e(  5 -  5) =      7.50826  eV     1   --> A_1  L_1       
     e(  6 -  7) =      9.37890  eV     2   --> E    L_3       
     e(  8 -  8) =     13.73806  eV     1   --> A_1  L_1       
     e(  9 - 10) =     16.45958  eV     2   --> E    L_3       
     e( 11 - 11) =     17.20454  eV     1   --> A_1  L_1       
     e( 12 - 13) =     17.35561  eV     2   --> E    L_3       
     e( 14 - 14) =     18.85321  eV     1   --> A_1  L_1       
     e( 15 - 15) =     25.00498  eV     1   --> A_1  L_1       
     e( 16 - 16) =     26.00081  eV     1   --> A_1  L_1       

 **************************************************************************

 **************************************************************************

                    xk=(   0.33588,  -0.33588,   0.33588  )

     Band symmetry, C_3v (3m)   point group:

     e(  1 -  1) =     -3.56857  eV     1   --> A_1  L_1       
     e(  2 -  2) =     -0.81776  eV     1   --> A_1  L_1       
     e(  3 -  4) =      4.84438  eV     2   --> E    L_3       
     e(  5 -  5) =      7.51213  eV     1   --> A_1  L_1       
     e(  6 -  7) =      9.38261  eV     2   --> E    L_3       
     e(  8 -  8) =     13.74378  eV     1   --> A_1  L_1       
     e(  9 - 10) =     16.28100  eV     2   --> E    L_3       
     e( 11 - 11) =     17.10395  eV     1   --> A_1  L_1       
     e( 12 - 13) =     17.54815  eV     2   --> E    L_3       
     e( 14 - 14) =     18.94885  eV     1   --> A_1  L_1       
     e( 15 - 15) =     24.68221  eV     1   --> A_1  L_1       
     e( 16 - 16) =     26.34278  eV     1   --> A_1  L_1       

 **************************************************************************

 **************************************************************************

                    xk=(   0.32704,  -0.32704,   0.32704  )

     Band symmetry, C_3v (3m)   point group:

     e(  1 -  1) =     -3.60984  eV     1   --> A_1  L_1       
     e(  2 -  2) =     -0.75740  eV     1   --> A_1  L_1       
     e(  3 -  4) =      4.84995  eV     2   --> E    L_3       
     e(  5 -  5) =      7.51858  eV     1   --> A_1  L_1       
     e(  6 -  7) =      9.38873  eV     2   --> E    L_3       
     e(  8 -  8) =     13.75317  eV     1   --> A_1  L_1       
     e(  9 - 10) =     16.06902  eV     2   --> E    L_3       
     e( 11 - 11) =     16.95761  eV     1   --> A_1  L_1       
     e( 12 - 13) =     17.78334  eV     2   --> E    L_3       
     e( 14 - 14) =     19.08590  eV     1   --> A_1  L_1       
     e( 15 - 15) =     24.33803  eV     1   --> A_1  L_1       
     e( 16 - 16) =     26.60362  eV     1   -->   ?

 **************************************************************************

 **************************************************************************

                    xk=(   0.31820,  -0.31820,   0.31820  )

     Band symmetry, C_3v (3m)   point group:

     e(  1 -  1) =     -3.66467  eV     1   --> A_1  L_1       
     e(  2 -  2) =     -0.67587  eV     1   --> A_1  L_1       
     e(  3 -  4) =      4.85775  eV     2   --> E    L_3       
     e(  5 -  5) =      7.52761  eV     1   --> A_1  L_1       
     e(  6 -  7) =      9.39712  eV     2   --> E    L_3       
     e(  8 -  8) =     13.76598  eV     1   --> A_1  L_1       
     e(  9 - 10) =     15.84748  eV     2   --> E    L_3       
     e( 11 - 11) =     16.78237  eV     1   --> A_1  L_1       
     e( 12 - 13) =     18.03724  eV     2   --> E    L_3       
     e( 14 - 14) =     19.24578  eV     1   --> A_1  L_1       
     e( 15 - 15) =     23.99642  eV     1   --> A_1  L_1       
     e( 16 - 16) =     26.28571  eV     1   -->   ?

 **************************************************************************

 **************************************************************************

                    xk=(   0.30936,  -0.30936,   0.30936  )

     Band symmetry, C_3v (3m)   point group:

     e(  1 -  1) =     -3.73076  eV     1   --> A_1  L_1       
     e(  2 -  2) =     -0.57546  eV     1   --> A_1  L_1       
     e(  3 -  4) =      4.86777  eV     2   --> E    L_3       
     e(  5 -  5) =      7.53920  eV     1   --> A_1  L_1       
     e(  6 -  7) =      9.40764  eV     2   --> E    L_3       
     e(  8 -  8) =     13.78184  eV     1   --> A_1  L_1       
     e(  9 - 10) =     15.62485  eV     2   --> E    L_3       
     e( 11 - 11) =     16.58997  eV     1   --> A_1  L_1       
     e( 12 - 13) =     18.30125  eV     2   --> E    L_3       
     e( 14 - 14) =     19.41394  eV     1   --> A_1  L_1       
     e( 15 - 15) =     23.66656  eV     1   --> A_1  L_1       
     e( 16 - 16) =     25.96704  eV     1   -->   ?

 **************************************************************************

 **************************************************************************

                    xk=(   0.30052,  -0.30052,   0.30052  )

     Band symmetry, C_3v (3m)   point group:

     e(  1 -  1) =     -3.80582  eV     1   --> A_1  L_1       
     e(  2 -  2) =     -0.45851  eV     1   --> A_1  L_1       
     e(  3 -  4) =      4.88001  eV     2   --> E    L_3       
     e(  5 -  5) =      7.55333  eV     1   --> A_1  L_1       
     e(  6 -  7) =      9.42005  eV     2   --> E    L_3       
     e(  8 -  8) =     13.80018  eV     1   --> A_1  L_1       
     e(  9 - 10) =     15.40480  eV     2   --> E    L_3       
     e( 11 - 11) =     16.38798  eV     1   --> A_1  L_1       
     e( 12 - 13) =     18.57145  eV     2   --> E    L_3       
     e( 14 - 14) =     19.57831  eV     1   --> A_1  L_1       
     e( 15 - 15) =     23.35574  eV     1   --> A_1  L_1       
     e( 16 - 16) =     25.64939  eV     1   -->   ?

 **************************************************************************

 **************************************************************************

                    xk=(   0.29168,  -0.29168,   0.29168  )

     Band symmetry, C_3v (3m)   point group:

     e(  1 -  1) =     -3.88772  eV     1   --> A_1  L_1       
     e(  2 -  2) =     -0.32716  eV     1   --> A_1  L_1       
     e(  3 -  4) =      4.89447  eV     2   --> E    L_3       
     e(  5 -  5) =      7.57000  eV     1   --> A_1  L_1       
     e(  6 -  7) =      9.43408  eV     2   --> E    L_3       
     e(  8 -  8) =     13.82018  eV     1   --> A_1  L_1       
     e(  9 - 10) =     15.18927  eV     2   --> E    L_3       
     e( 11 - 11) =     16.18150  eV     1   --> A_1  L_1       
     e( 12 - 13) =     18.84550  eV     2   --> E    L_3       
     e( 14 - 14) =     19.72702  eV     1   --> A_1  L_1       
     e( 15 - 15) =     23.07271  eV     1   --> A_1  L_1       
     e( 16 - 16) =     25.33445  eV     1   -->   ?

 **************************************************************************

 **************************************************************************

                    xk=(   0.28284,  -0.28284,   0.28284  )

     Band symmetry, C_3v (3m)   point group:

     e(  1 -  1) =     -3.97460  eV     1   --> A_1  L_1       
     e(  2 -  2) =     -0.18329  eV     1   --> A_1  L_1       
     e(  3 -  4) =      4.91113  eV     2   --> E    L_3       
     e(  5 -  5) =      7.58918  eV     1   --> A_1  L_1       
     e(  6 -  7) =      9.44941  eV     2   --> E    L_3       
     e(  8 -  8) =     13.84064  eV     1   --> A_1  L_1       
     e(  9 - 10) =     14.97954  eV     2   --> E    L_3       
     e( 11 - 11) =     15.97440  eV     1   --> A_1  L_1       
     e( 12 - 13) =     19.12157  eV     2   --> E    L_3       
     e( 14 - 14) =     19.84638  eV     1   --> A_1  L_1       
     e( 15 - 15) =     22.82909  eV     1   --> A_1  L_1       
     e( 16 - 16) =     25.02399  eV     1   -->   ?

 **************************************************************************

 **************************************************************************

                    xk=(   0.27400,  -0.27400,   0.27400  )

     Band symmetry, C_3v (3m)   point group:

     e(  1 -  1) =     -4.06488  eV     1   --> A_1  L_1       
     e(  2 -  2) =     -0.02853  eV     1   --> A_1  L_1       
     e(  3 -  4) =      4.92998  eV     2   --> E    L_3       
     e(  5 -  5) =      7.61086  eV     1   --> A_1  L_1       
     e(  6 -  7) =      9.46563  eV     2   --> E    L_3       
     e(  8 -  8) =     13.85974  eV     1   --> A_1  L_1       
     e(  9 - 10) =     14.77655  eV     2   --> E    L_3       
     e( 11 - 11) =     15.77012  eV     1   --> A_1  L_1       
     e( 12 - 13) =     19.39776  eV     2   --> E    L_3       
     e( 14 - 14) =     19.92028  eV     1   --> A_1  L_1       
     e( 15 - 15) =     22.63966  eV     1   --> A_1  L_1       
     e( 16 - 16) =     24.72002  eV     1   -->   ?

 **************************************************************************

 **************************************************************************

                    xk=(   0.26517,  -0.26517,   0.26517  )

     Band symmetry, C_3v (3m)   point group:

     e(  1 -  1) =     -4.15728  eV     1   --> A_1  L_1       
     e(  2 -  2) =      0.13578  eV     1   --> A_1  L_1       
     e(  3 -  4) =      4.95102  eV     2   --> E    L_3       
     e(  5 -  5) =      7.63498  eV     1   --> A_1  L_1       
     e(  6 -  7) =      9.48226  eV     2   --> E    L_3       
     e(  8 -  8) =     13.87475  eV     1   --> A_1  L_1       
     e(  9 - 10) =     14.58114  eV     2   --> E    L_3       
     e( 11 - 11) =     15.57242  eV     1   --> A_1  L_1       
     e( 12 - 13) =     19.67172  eV     2   --> E    L_3       
     e( 14 - 14) =     19.93259  eV     1   --> A_1  L_1       
     e( 15 - 15) =     22.51963  eV     1   --> A_1  L_1       
     e( 16 - 16) =     24.42506  eV     1   -->   ?

 **************************************************************************

 **************************************************************************

                    xk=(   0.25633,  -0.25633,   0.25633  )

     Band symmetry, C_3v (3m)   point group:

     e(  1 -  1) =     -4.25070  eV     1   --> A_1  L_1       
     e(  2 -  2) =      0.30853  eV     1   --> A_1  L_1       
     e(  3 -  4) =      4.97423  eV     2   --> E    L_3       
     e(  5 -  5) =      7.66153  eV     1   --> A_1  L_1       
     e(  6 -  7) =      9.49878  eV     2   --> E    L_3       
     e(  8 -  8) =     13.88152  eV     1   --> A_1  L_1       
     e(  9 - 10) =     14.39410  eV     2   --> E    L_3       
     e( 11 - 11) =     15.38607  eV     1   --> A_1  L_1       
     e( 12 - 12) =     19.87355  eV     1   --> A_1  L_1       
     e( 13 - 14) =     19.94025  eV     2   --> E    L_3       
     e( 15 - 15) =     22.47809  eV     1   --> A_1  L_1       
     e( 16 - 16) =     24.14253  eV     1   -->   ?

 **************************************************************************

 **************************************************************************

                    xk=(   0.24749,  -0.24749,   0.24749  )

     Band symmetry, C_3v (3m)   point group:

     e(  1 -  1) =     -4.34430  eV     1   --> A_1  L_1       
     e(  2 -  2) =      0.48878  eV     1   --> A_1  L_1       
     e(  3 -  4) =      4.99959  eV     2   --> E    L_3       
     e(  5 -  5) =      7.69046  eV     1   --> A_1  L_1       
     e(  6 -  7) =      9.51455  eV     2   --> E    L_3       
     e(  8 -  8) =     13.87394  eV     1   --> A_1  L_1       
     e(  9 - 10) =     14.21620  eV     2   --> E    L_3       
     e( 11 - 11) =     15.21751  eV     1   --> A_1  L_1       
     e( 12 - 12) =     19.74561  eV     1   --> A_1  L_1       
     e( 13 - 14) =     20.19858  eV     2   --> E    L_3       
     e( 15 - 15) =     22.51203  eV     1   --> A_1  L_1       
     e( 16 - 16) =     23.87739  eV     1   -->   ?

 **************************************************************************

 **************************************************************************

                    xk=(   0.23865,  -0.23865,   0.23865  )

     Band symmetry, C_3v (3m)   point group:

     e(  1 -  1) =     -4.43734  eV     1   --> A_1  L_1       
     e(  2 -  2) =      0.67577  eV     1   --> A_1  L_1       
     e(  3 -  4) =      5.02707  eV     2   --> E    L_3       
     e(  5 -  5) =      7.72172  eV     1   --> A_1  L_1       
     e(  6 -  7) =      9.52889  eV     2   --> E    L_3       
     e(  8 -  8) =     13.84385  eV     1   --> A_1  L_1       
     e(  9 - 10) =     14.04828  eV     2   --> E    L_3       
     e( 11 - 11) =     15.07501  eV     1   --> A_1  L_1       
     e( 12 - 12) =     19.56184  eV     1   --> A_1  L_1       
     e( 13 - 14) =     20.43935  eV     2   --> E    L_3       
     e( 15 - 15) =     22.60787  eV     1   --> A_1  L_1       
     e( 16 - 16) =     23.63716  eV     1   -->   ?

 **************************************************************************

 **************************************************************************

                    xk=(   0.22981,  -0.22981,   0.22981  )

     Band symmetry, C_3v (3m)   point group:

     e(  1 -  1) =     -4.52927  eV     1   --> A_1  L_1       
     e(  2 -  2) =      0.86884  eV     1   --> A_1  L_1       
     e(  3 -  4) =      5.05664  eV     2   --> E    L_3       
     e(  5 -  5) =      7.75525  eV     1   --> A_1  L_1       
     e(  6 -  7) =      9.54103  eV     2   --> E    L_3       
     e(  8 -  8) =     13.78260  eV     1   --> A_1  L_1       
     e(  9 - 10) =     13.89117  eV     2   --> E    L_3       
     e( 11 - 11) =     14.96715  eV     1   --> A_1  L_1       
     e( 12 - 12) =     19.33865  eV     1   --> A_1  L_1       
     e( 13 - 14) =     20.65111  eV     2   --> E    L_3       
     e( 15 - 15) =     22.74854  eV     1   --> A_1  L_1       
     e( 16 - 16) =     23.43344  eV     1   -->   ?

 **************************************************************************

 **************************************************************************

                    xk=(   0.22097,  -0.22097,   0.22097  )

     Band symmetry, C_3v (3m)   point group:

     e(  1 -  1) =     -4.61960  eV     1   --> A_1  L_1       
     e(  2 -  2) =      1.06744  eV     1   --> A_1  L_1       
     e(  3 -  4) =      5.08827  eV     2   --> E    L_3       
     e(  5 -  5) =      7.79097  eV     1   --> A_1  L_1       
     e(  6 -  7) =      9.55015  eV     2   --> E    L_3       
     e(  8 -  8) =     13.68491  eV     1   --> A_1  L_1       
     e(  9 - 10) =     13.74576  eV     2   --> E    L_3       
     e( 11 - 11) =     14.89896  eV     1   --> A_1  L_1       
     e( 12 - 12) =     19.09042  eV     1   --> A_1  L_1       
     e( 13 - 14) =     20.81704  eV     2   --> E    L_3       
     e( 15 - 15) =     22.91879  eV     1   --> A_1  L_1       
     e( 16 - 16) =     23.28317  eV     1   -->   ?

 **************************************************************************

 **************************************************************************

                    xk=(   0.21213,  -0.21213,   0.21213  )

     Band symmetry, C_3v (3m)   point group:

     e(  1 -  1) =     -4.70794  eV     1   --> A_1  L_1       
     e(  2 -  2) =      1.27109  eV     1   --> A_1  L_1       
     e(  3 -  4) =      5.12191  eV     2   --> E    L_3       
     e(  5 -  5) =      7.82881  eV     1   --> A_1  L_1       
     e(  6 -  7) =      9.55540  eV     2   --> E    L_3       
     e(  8 -  8) =     13.55215  eV     1   --> A_1  L_1       
     e(  9 - 10) =     13.61294  eV     2   --> E    L_3       
     e( 11 - 11) =     14.86864  eV     1   --> A_1  L_1       
     e( 12 - 12) =     18.82792  eV     1   --> A_1  L_1       
     e( 13 - 14) =     20.91650  eV     2   --> E    L_3       
     e( 15 - 15) =     23.10647  eV     1   --> A_1  L_1       
     e( 16 - 16) =     23.20708  eV     1   -->   ?

 **************************************************************************

 **************************************************************************

                    xk=(   0.20329,  -0.20329,   0.20329  )

     Band symmetry, C_3v (3m)   point group:

     e(  1 -  1) =     -4.79398  eV     1   --> A_1  L_1       
     e(  2 -  2) =      1.47935  eV     1   --> A_1  L_1       
     e(  3 -  4) =      5.15749  eV     2   --> E    L_3       
     e(  5 -  5) =      7.86866  eV     1   --> A_1  L_1       
     e(  6 -  7) =      9.55589  eV     2   --> E    L_3       
     e(  8 -  8) =     13.39099  eV     1   --> A_1  L_1       
     e(  9 - 10) =     13.49360  eV     2   --> E    L_3       
     e( 11 - 11) =     14.86890  eV     1   --> A_1  L_1       
     e( 12 - 12) =     18.55893  eV     1   --> A_1  L_1       
     e( 13 - 14) =     20.93359  eV     2   --> E    L_3       
     e( 15 - 16) =     23.22116  eV     2   --> E    L_3       

 **************************************************************************

 **************************************************************************

                    xk=(   0.19445,  -0.19445,   0.19445  )

     Band symmetry, C_3v (3m)   point group:

     e(  1 -  1) =     -4.87744  eV     1   --> A_1  L_1       
     e(  2 -  2) =      1.69183  eV     1   --> A_1  L_1       
     e(  3 -  4) =      5.19496  eV     2   --> E    L_3       
     e(  5 -  5) =      7.91042  eV     1   --> A_1  L_1       
     e(  6 -  7) =      9.55081  eV     2   --> E    L_3       
     e(  8 -  8) =     13.20927  eV     1   --> A_1  L_1       
     e(  9 - 10) =     13.38856  eV     2   --> E    L_3       
     e( 11 - 11) =     14.89101  eV     1   --> A_1  L_1       
     e( 12 - 12) =     18.28920  eV     1   --> A_1  L_1       
     e( 13 - 14) =     20.86860  eV     2   --> E    L_3       
     e( 15 - 16) =     23.32518  eV     2   --> E    L_3       

 **************************************************************************

 **************************************************************************

                    xk=(   0.18562,  -0.18562,   0.18562  )

     Band symmetry, C_3v (3m)   point group:

     e(  1 -  1) =     -4.95811  eV     1   --> A_1  L_1       
     e(  2 -  2) =      1.90817  eV     1   --> A_1  L_1       
     e(  3 -  4) =      5.23423  eV     2   --> E    L_3       
     e(  5 -  5) =      7.95395  eV     1   --> A_1  L_1       
     e(  6 -  7) =      9.53943  eV     2   --> E    L_3       
     e(  8 -  8) =     13.01339  eV     1   --> A_1  L_1       
     e(  9 - 10) =     13.29855  eV     2   --> E    L_3       
     e( 11 - 11) =     14.92732  eV     1   --> A_1  L_1       
     e( 12 - 12) =     18.02330  eV     1   --> A_1  L_1       
     e( 13 - 14) =     20.73797  eV     2   --> E    L_3       
     e( 15 - 16) =     23.50271  eV     2   --> E    L_3       

 **************************************************************************

 **************************************************************************

                    xk=(   0.17678,  -0.17678,   0.17678  )

     Band symmetry, C_3v (3m)   point group:

     e(  1 -  1) =     -5.03579  eV     1   --> A_1  L_1       
     e(  2 -  2) =      2.12803  eV     1   --> A_1  L_1       
     e(  3 -  4) =      5.27521  eV     2   --> E    L_3       
     e(  5 -  5) =      7.99909  eV     1   --> A_1  L_1       
     e(  6 -  7) =      9.52115  eV     2   --> E    L_3       
     e(  8 -  8) =     12.80786  eV     1   --> A_1  L_1       
     e(  9 - 10) =     13.22412  eV     2   --> E    L_3       
     e( 11 - 11) =     14.97163  eV     1   --> A_1  L_1       
     e( 12 - 12) =     17.76534  eV     1   --> A_1  L_1       
     e( 13 - 14) =     20.56274  eV     2   --> E    L_3       
     e( 15 - 16) =     23.73273  eV     2   --> E    L_3       

 **************************************************************************

 **************************************************************************

                    xk=(   0.16794,  -0.16794,   0.16794  )

     Band symmetry, C_3v (3m)   point group:

     e(  1 -  1) =     -5.11032  eV     1   --> A_1  L_1       
     e(  2 -  2) =      2.35105  eV     1   --> A_1  L_1       
     e(  3 -  4) =      5.31778  eV     2   --> E    L_3       
     e(  5 -  5) =      8.04568  eV     1   --> A_1  L_1       
     e(  6 -  7) =      9.49560  eV     2   --> E    L_3       
     e(  8 -  8) =     12.59566  eV     1   --> A_1  L_1       
     e(  9 - 10) =     13.16561  eV     2   --> E    L_3       
     e( 11 - 11) =     15.01859  eV     1   --> A_1  L_1       
     e( 12 - 12) =     17.51945  eV     1   --> A_1  L_1       
     e( 13 - 14) =     20.36002  eV     2   --> E    L_3       
     e( 15 - 15) =     23.92325  eV     1   --> A_1  L_1       
     e( 16 - 16) =     23.99812  eV     1   -->   ?

 **************************************************************************

 **************************************************************************

                    xk=(   0.15910,  -0.15910,   0.15910  )

     Band symmetry, C_3v (3m)   point group:

     e(  1 -  1) =     -5.18158  eV     1   --> A_1  L_1       
     e(  2 -  2) =      2.57690  eV     1   --> A_1  L_1       
     e(  3 -  4) =      5.36180  eV     2   --> E    L_3       
     e(  5 -  5) =      8.09349  eV     1   --> A_1  L_1       
     e(  6 -  7) =      9.46265  eV     2   --> E    L_3       
     e(  8 -  8) =     12.37877  eV     1   --> A_1  L_1       
     e(  9 - 10) =     13.12309  eV     2   --> E    L_3       
     e( 11 - 11) =     15.06291  eV     1   --> A_1  L_1       
     e( 12 - 12) =     17.29027  eV     1   --> A_1  L_1       
     e( 13 - 14) =     20.14149  eV     2   --> E    L_3       
     e( 15 - 15) =     23.94958  eV     1   --> A_1  L_1       
     e( 16 - 16) =     24.28717  eV     1   -->   ?

 **************************************************************************

 **************************************************************************

                    xk=(   0.15026,  -0.15026,   0.15026  )

     Band symmetry, C_3v (3m)   point group:

     e(  1 -  1) =     -5.24943  eV     1   --> A_1  L_1       
     e(  2 -  2) =      2.80520  eV     1   --> A_1  L_1       
     e(  3 -  4) =      5.40713  eV     2   --> E    L_3       
     e(  5 -  5) =      8.14230  eV     1   --> A_1  L_1       
     e(  6 -  7) =      9.42246  eV     2   --> E    L_3       
     e(  8 -  8) =     12.15850  eV     1   --> A_1  L_1       
     e(  9 - 10) =     13.09632  eV     2   --> E    L_3       
     e( 11 - 11) =     15.09869  eV     1   --> A_1  L_1       
     e( 12 - 12) =     17.08345  eV     1   --> A_1  L_1       
     e( 13 - 14) =     19.91467  eV     2   --> E    L_3       
     e( 15 - 15) =     23.89332  eV     1   --> A_1  L_1       
     e( 16 - 16) =     24.59227  eV     1   -->   ?

 **************************************************************************

 **************************************************************************

                    xk=(   0.14142,  -0.14142,   0.14142  )

     Band symmetry, C_3v (3m)   point group:

     e(  1 -  1) =     -5.31380  eV     1   --> A_1  L_1       
     e(  2 -  2) =      3.03556  eV     1   --> A_1  L_1       
     e(  3 -  4) =      5.45356  eV     2   --> E    L_3       
     e(  5 -  5) =      8.19180  eV     1   --> A_1  L_1       
     e(  6 -  7) =      9.37546  eV     2   --> E    L_3       
     e(  8 -  8) =     11.93583  eV     1   --> A_1  L_1       
     e(  9 - 10) =     13.08476  eV     2   --> E    L_3       
     e( 11 - 11) =     15.11901  eV     1   --> A_1  L_1       
     e( 12 - 12) =     16.90581  eV     1   --> A_1  L_1       
     e( 13 - 14) =     19.68450  eV     2   --> E    L_3       
     e( 15 - 15) =     23.76725  eV     1   --> A_1  L_1       
     e( 16 - 16) =     24.90837  eV     1   -->   ?

 **************************************************************************

 **************************************************************************

                    xk=(   0.13258,  -0.13258,   0.13258  )

     Band symmetry, C_3v (3m)   point group:

     e(  1 -  1) =     -5.37458  eV     1   --> A_1  L_1       
     e(  2 -  2) =      3.26754  eV     1   --> A_1  L_1       
     e(  3 -  4) =      5.50088  eV     2   --> E    L_3       
     e(  5 -  5) =      8.24168  eV     1   --> A_1  L_1       
     e(  6 -  7) =      9.32235  eV     2   --> E    L_3       
     e(  8 -  8) =     11.71151  eV     1   --> A_1  L_1       
     e(  9 - 10) =     13.08758  eV     2   --> E    L_3       
     e( 11 - 11) =     15.11638  eV     1   --> A_1  L_1       
     e( 12 - 12) =     16.76490  eV     1   --> A_1  L_1       
     e( 13 - 14) =     19.45434  eV     2   --> E    L_3       
     e( 15 - 15) =     23.59482  eV     1   --> A_1  L_1       
     e( 16 - 16) =     25.23197  eV     1   -->   ?

 **************************************************************************

 **************************************************************************

                    xk=(   0.12374,  -0.12374,   0.12374  )

     Band symmetry, C_3v (3m)   point group:

     e(  1 -  1) =     -5.43170  eV     1   --> A_1  L_1       
     e(  2 -  2) =      3.50065  eV     1   --> A_1  L_1       
     e(  3 -  4) =      5.54883  eV     2   --> E    L_3       
     e(  5 -  5) =      8.29156  eV     1   --> A_1  L_1       
     e(  6 -  7) =      9.26404  eV     2   --> E    L_3       
     e(  8 -  8) =     11.48621  eV     1   --> A_1  L_1       
     e(  9 - 10) =     13.10371  eV     2   --> E    L_3       
     e( 11 - 11) =     15.08454  eV     1   --> A_1  L_1       
     e( 12 - 12) =     16.66702  eV     1   --> A_1  L_1       
     e( 13 - 14) =     19.22660  eV     2   --> E    L_3       
     e( 15 - 15) =     23.39629  eV     1   --> A_1  L_1       
     e( 16 - 16) =     25.56040  eV     1   -->   ?

 **************************************************************************

 **************************************************************************

                    xk=(   0.11490,  -0.11490,   0.11490  )

     Band symmetry, C_3v (3m)   point group:

     e(  1 -  1) =     -5.48511  eV     1   --> A_1  L_1       
     e(  2 -  2) =      3.73432  eV     1   --> A_1  L_1       
     e(  3 -  4) =      5.59711  eV     2   --> E    L_3       
     e(  5 -  5) =      8.34098  eV     1   --> A_1  L_1       
     e(  6 -  7) =      9.20162  eV     2   --> E    L_3       
     e(  8 -  8) =     11.26060  eV     1   --> A_1  L_1       
     e(  9 - 10) =     13.13186  eV     2   --> E    L_3       
     e( 11 - 11) =     15.02139  eV     1   --> A_1  L_1       
     e( 12 - 12) =     16.61428  eV     1   --> A_1  L_1       
     e( 13 - 14) =     19.00317  eV     2   --> E    L_3       
     e( 15 - 15) =     23.18517  eV     1   --> A_1  L_1       
     e( 16 - 16) =     25.89145  eV     1   -->   ?

 **************************************************************************

 **************************************************************************

                    xk=(   0.10607,  -0.10607,   0.10607  )

     Band symmetry, C_3v (3m)   point group:

     e(  1 -  1) =     -5.53475  eV     1   --> A_1  L_1       
     e(  2 -  2) =      3.96786  eV     1   --> A_1  L_1       
     e(  3 -  4) =      5.64538  eV     2   --> E    L_3       
     e(  5 -  5) =      8.38942  eV     1   --> A_1  L_1       
     e(  6 -  7) =      9.13629  eV     2   --> E    L_3       
     e(  8 -  8) =     11.03543  eV     1   --> A_1  L_1       
     e(  9 - 10) =     13.17055  eV     2   --> E    L_3       
     e( 11 - 11) =     14.93063  eV     1   --> A_1  L_1       
     e( 12 - 12) =     16.60297  eV     1   --> A_1  L_1       
     e( 13 - 14) =     18.78563  eV     2   --> E    L_3       
     e( 15 - 15) =     22.96995  eV     1   --> A_1  L_1       
     e( 16 - 16) =     26.22304  eV     1   -->   ?

 **************************************************************************

 **************************************************************************

                    xk=(   0.09723,  -0.09723,   0.09723  )

     Band symmetry, C_3v (3m)   point group:

     e(  1 -  1) =     -5.58056  eV     1   --> A_1  L_1       
     e(  2 -  2) =      4.20047  eV     1   --> A_1  L_1       
     e(  3 -  4) =      5.69322  eV     2   --> E    L_3       
     e(  5 -  5) =      8.43627  eV     1   --> A_1  L_1       
     e(  6 -  7) =      9.06932  eV     2   --> E    L_3       
     e(  8 -  8) =     10.81163  eV     1   --> A_1  L_1       
     e(  9 - 10) =     13.21818  eV     2   --> E    L_3       
     e( 11 - 11) =     14.82011  eV     1   --> A_1  L_1       
     e( 12 - 12) =     16.62508  eV     1   --> A_1  L_1       
     e( 13 - 14) =     18.57541  eV     2   --> E    L_3       
     e( 15 - 15) =     22.75614  eV     1   --> A_1  L_1       
     e( 16 - 16) =     26.55309  eV     1   -->   ?

 **************************************************************************

 **************************************************************************

                    xk=(   0.08839,  -0.08839,   0.08839  )

     Band symmetry, C_3v (3m)   point group:

     e(  1 -  1) =     -5.62251  eV     1   --> A_1  L_1       
     e(  2 -  2) =      4.43110  eV     1   --> A_1  L_1       
     e(  3 -  4) =      5.74018  eV     2   --> E    L_3       
     e(  5 -  5) =      8.48079  eV     1   --> A_1  L_1       
     e(  6 -  7) =      9.00202  eV     2   --> E    L_3       
     e(  8 -  8) =     10.59038  eV     1   --> A_1  L_1       
     e(  9 - 10) =     13.27301  eV     2   --> E    L_3       
     e( 11 - 11) =     14.69868  eV     1   --> A_1  L_1       
     e( 12 - 12) =     16.67148  eV     1   --> A_1  L_1       
     e( 13 - 14) =     18.37392  eV     2   --> E    L_3       
     e( 15 - 15) =     22.54760  eV     1   --> A_1  L_1       
     e( 16 - 16) =     26.87918  eV     1   -->   ?

 **************************************************************************

 **************************************************************************

                    xk=(   0.07955,  -0.07955,   0.07955  )

     Band symmetry, C_3v (3m)   point group:

     e(  1 -  1) =     -5.66056  eV     1   --> A_1  L_1       
     e(  2 -  2) =      4.65846  eV     1   --> A_1  L_1       
     e(  3 -  4) =      5.78573  eV     2   --> E    L_3       
     e(  5 -  5) =      8.52209  eV     1   --> A_1  L_1       
     e(  6 -  7) =      8.93571  eV     2   --> E    L_3       
     e(  8 -  8) =     10.37326  eV     1   --> A_1  L_1       
     e(  9 - 10) =     13.33318  eV     2   --> E    L_3       
     e( 11 - 11) =     14.57403  eV     1   --> A_1  L_1       
     e( 12 - 12) =     16.73402  eV     1   --> A_1  L_1       
     e( 13 - 14) =     18.18261  eV     2   --> E    L_3       
     e( 15 - 15) =     22.34736  eV     1   --> A_1  L_1       
     e( 16 - 16) =     27.19842  eV     1   -->   ?

 **************************************************************************

 **************************************************************************

                    xk=(   0.07071,  -0.07071,   0.07071  )

     Band symmetry, C_3v (3m)   point group:

     e(  1 -  1) =     -5.69468  eV     1   --> A_1  L_1       
     e(  2 -  2) =      4.88090  eV     1   --> A_1  L_1       
     e(  3 -  4) =      5.82929  eV     2   --> E    L_3       
     e(  5 -  5) =      8.55908  eV     1   --> A_1  L_1       
     e(  6 -  7) =      8.87171  eV     2   --> E    L_3       
     e(  8 -  8) =     10.16237  eV     1   --> A_1  L_1       
     e(  9 - 10) =     13.39670  eV     2   --> E    L_3       
     e( 11 - 11) =     14.45208  eV     1   --> A_1  L_1       
     e( 12 - 12) =     16.80613  eV     1   --> A_1  L_1       
     e( 13 - 14) =     18.00304  eV     2   --> E    L_3       
     e( 15 - 15) =     22.15802  eV     1   --> A_1  L_1       
     e( 16 - 16) =     27.50709  eV     1   -->   ?

 **************************************************************************

 **************************************************************************

                    xk=(   0.06187,  -0.06187,   0.06187  )

     Band symmetry, C_3v (3m)   point group:

     e(  1 -  1) =     -5.72485  eV     1   --> A_1  L_1       
     e(  2 -  2) =      5.09622  eV     1   --> A_1  L_1       
     e(  3 -  4) =      5.87021  eV     2   --> E    L_3       
     e(  5 -  5) =      8.59040  eV     1   --> A_1  L_1       
     e(  6 -  7) =      8.81131  eV     2   --> E    L_3       
     e(  8 -  8) =      9.96062  eV     1   --> A_1  L_1       
     e(  9 - 10) =     13.46144  eV     2   --> E    L_3       
     e( 11 - 11) =     14.33721  eV     1   --> A_1  L_1       
     e( 12 - 12) =     16.88251  eV     1   --> A_1  L_1       
     e( 13 - 14) =     17.83695  eV     2   --> E    L_3       
     e( 15 - 15) =     21.98204  eV     1   --> A_1  L_1       
     e( 16 - 16) =     27.80024  eV     1   -->   ?

 **************************************************************************

 **************************************************************************

                    xk=(   0.05303,  -0.05303,   0.05303  )

     Band symmetry, C_3v (3m)   point group:

     e(  1 -  1) =     -5.75103  eV     1   --> A_1  L_1       
     e(  2 -  2) =      5.30154  eV     1   --> A_1  L_1       
     e(  3 -  4) =      5.90780  eV     2   --> E    L_3       
     e(  5 -  5) =      8.61437  eV     1   --> A_1  L_1       
     e(  6 -  7) =      8.75576  eV     2   --> E    L_3       
     e(  8 -  8) =      9.77193  eV     1   --> A_1  L_1       
     e(  9 - 10) =     13.52508  eV     2   --> E    L_3       
     e( 11 - 11) =     14.23262  eV     1   --> A_1  L_1       
     e( 12 - 12) =     16.95878  eV     1   --> A_1  L_1       
     e( 13 - 14) =     17.68624  eV     2   --> E    L_3       
     e( 15 - 15) =     21.82188  eV     1   --> A_1  L_1       
     e( 16 - 16) =     28.07131  eV     1   -->   ?

 **************************************************************************

 **************************************************************************

                    xk=(   0.04419,  -0.04419,   0.04419  )

     Band symmetry, C_3v (3m)   point group:

     e(  1 -  1) =     -5.77322  eV     1   --> A_1  L_1       
     e(  2 -  2) =      5.49300  eV     1   --> A_1  L_1       
     e(  3 -  4) =      5.94131  eV     2   --> E    L_3       
     e(  5 -  5) =      8.62899  eV     1   --> A_1  L_1       
     e(  6 -  7) =      8.70628  eV     2   --> E    L_3       
     e(  8 -  8) =      9.60151  eV     1   --> A_1  L_1       
     e(  9 - 10) =     13.58520  eV     2   --> E    L_3       
     e( 11 - 11) =     14.14071  eV     1   --> A_1  L_1       
     e( 12 - 12) =     17.03112  eV     1   --> A_1  L_1       
     e( 13 - 14) =     17.55302  eV     2   --> E    L_3       
     e( 15 - 15) =     21.68006  eV     1   --> A_1  L_1       
     e( 16 - 16) =     28.28407  eV     1   --> A_1  L_1       

 **************************************************************************

 **************************************************************************

                    xk=(   0.03536,  -0.03536,   0.03536  )

     Band symmetry, C_3v (3m)   point group:

     e(  1 -  1) =     -5.79139  eV     1   --> A_1  L_1       
     e(  2 -  2) =      5.66552  eV     1   --> A_1  L_1       
     e(  3 -  4) =      5.97002  eV     2   --> E    L_3       
     e(  5 -  5) =      8.63237  eV     1   --> A_1  L_1       
     e(  6 -  7) =      8.66399  eV     2   --> E    L_3       
     e(  8 -  8) =      9.45574  eV     1   --> A_1  L_1       
     e(  9 - 10) =     13.63925  eV     2   --> E    L_3       
     e( 11 - 11) =     14.06329  eV     1   --> A_1  L_1       
     e( 12 - 12) =     17.09607  eV     1   --> A_1  L_1       
     e( 13 - 14) =     17.43955  eV     2   --> E    L_3       
     e( 15 - 15) =     21.55916  eV     1   --> A_1  L_1       
     e( 16 - 16) =     28.46605  eV     1   --> A_1  L_1       

 **************************************************************************

 **************************************************************************

                    xk=(   0.02652,  -0.02652,   0.02652  )

     Band symmetry, C_3v (3m)   point group:

     e(  1 -  1) =     -5.80554  eV     1   --> A_1  L_1       
     e(  2 -  2) =      5.81261  eV     1   --> A_1  L_1       
     e(  3 -  4) =      5.99322  eV     2   --> E    L_3       
     e(  5 -  5) =      8.62410  eV     1   --> A_1  L_1       
     e(  6 -  7) =      8.62990  eV     2   --> E    L_3       
     e(  8 -  8) =      9.34097  eV     1   --> A_1  L_1       
     e(  9 - 10) =     13.68470  eV     2   --> E    L_3       
     e( 11 - 11) =     14.00174  eV     1   --> A_1  L_1       
     e( 12 - 12) =     17.15048  eV     1   --> A_1  L_1       
     e( 13 - 14) =     17.34813  eV     2   --> E    L_3       
     e( 15 - 15) =     21.46173  eV     1   --> A_1  L_1       
     e( 16 - 16) =     28.62159  eV     1   --> A_1  L_1       

 **************************************************************************

 **************************************************************************

                    xk=(   0.01768,  -0.01768,   0.01768  )

     Band symmetry, C_3v (3m)   point group:

     e(  1 -  1) =     -5.81565  eV     1   --> A_1  L_1       
     e(  2 -  2) =      5.92652  eV     1   --> A_1  L_1       
     e(  3 -  4) =      6.01030  eV     2   --> E    L_3       
     e(  5 -  6) =      8.60489  eV     2   --> E    L_3       
     e(  7 -  7) =      8.60765  eV     1   --> A_1  L_1       
     e(  8 -  8) =      9.26104  eV     1   --> A_1  L_1       
     e(  9 - 10) =     13.71918  eV     2   --> E    L_3       
     e( 11 - 11) =     13.95707  eV     1   --> A_1  L_1       
     e( 12 - 12) =     17.19160  eV     1   --> A_1  L_1       
     e( 13 - 14) =     17.28093  eV     2   --> E    L_3       
     e( 15 - 15) =     21.39012  eV     1   --> A_1  L_1       
     e( 16 - 16) =     28.74243  eV     1   --> A_1  L_1       

 **************************************************************************

 **************************************************************************

                    xk=(   0.00884,  -0.00884,   0.00884  )

     Band symmetry, C_3v (3m)   point group:

     e(  1 -  1) =     -5.82172  eV     1   --> A_1  L_1       
     e(  2 -  2) =      5.99921  eV     1   --> A_1  L_1       
     e(  3 -  4) =      6.02075  eV     2   --> E    L_3       
     e(  5 -  6) =      8.58960  eV     2   --> E    L_3       
     e(  7 -  7) =      8.59129  eV     1   --> A_1  L_1       
     e(  8 -  8) =      9.21537  eV     1   --> A_1  L_1       
     e(  9 - 10) =     13.74074  eV     2   --> E    L_3       
     e( 11 - 11) =     13.92999  eV     1   --> A_1  L_1       
     e( 12 - 12) =     17.21723  eV     1   --> A_1  L_1       
     e( 13 - 14) =     17.23979  eV     2   --> E    L_3       
     e( 15 - 15) =     21.34629  eV     1   --> A_1  L_1       
     e( 16 - 16) =     28.81981  eV     1   --> A_1  L_1       

 **************************************************************************

 **************************************************************************

                    xk=(   0.00000,   0.00000,   0.00000  )

     point group O_h (m-3m) 
     there are 10 classes
     the character table:

       E     8C3   3C2   6C4   6C2'  i     8S6   3s_h  6S4   6s_d 
A_1g   1.00  1.00  1.00  1.00  1.00  1.00  1.00  1.00  1.00  1.00
A_2g   1.00  1.00  1.00 -1.00 -1.00  1.00  1.00  1.00 -1.00 -1.00
E_g    2.00 -1.00  2.00  0.00  0.00  2.00 -1.00  2.00  0.00  0.00
T_1g   3.00  0.00 -1.00  1.00 -1.00  3.00  0.00 -1.00  1.00 -1.00
T_2g   3.00  0.00 -1.00 -1.00  1.00  3.00  0.00 -1.00 -1.00  1.00
A_1u   1.00  1.00  1.00  1.00  1.00 -1.00 -1.00 -1.00 -1.00 -1.00
A_2u   1.00  1.00  1.00 -1.00 -1.00 -1.00 -1.00 -1.00  1.00  1.00
E_u    2.00 -1.00  2.00  0.00  0.00 -2.00  1.00 -2.00  0.00  0.00
T_1u   3.00  0.00 -1.00  1.00 -1.00 -3.00  0.00  1.00 -1.00  1.00
T_2u   3.00  0.00 -1.00 -1.00  1.00 -3.00  0.00  1.00  1.00 -1.00

     the symmetry operations in each class and the name of the first element:

     E        1
                                                                 
     8C3     17   19   20   18   24   21   22   23
                                                                 
     3C2      2    4    3
                                                                 
     6C4      7    8   15   16   12   11
                                                                 
     6C2'     5    6   14   13   10    9
                                                                 
     i       25
                                                                 
     8S6     41   43   44   42   48   45   46   47
                                                                 
     3s_h    26   28   27
                                                                 
     6S4     31   32   39   40   36   35
                                                                 
     6s_d    29   30   38   37   34   33
                                                                 

     Band symmetry, O_h (m-3m)  point group:

     e(  1 -  1) =     -5.82375  eV     1   --> A_1g G_1   G_1+
     e(  2 -  4) =      6.02428  eV     3   --> T_2g G_25' G_5+
     e(  5 -  7) =      8.58445  eV     3   --> T_1u G_15  G_4-
     e(  8 -  8) =      9.20072  eV     1   --> A_2u G_2'  G_2-
     e(  9 - 10) =     13.74809  eV     2   --> E_u  G_12' G_3-
     e( 11 - 11) =     13.92092  eV     1   --> A_1g G_1   G_1+
     e( 12 - 14) =     17.22594  eV     3   --> T_2g G_25' G_5+
     e( 15 - 15) =     21.33153  eV     1   --> A_2u G_2'  G_2-
     e( 16 - 16) =     28.84655  eV     1   -->   ?

 **************************************************************************

 **************************************************************************

                    xk=(   0.00000,  -0.01179,   0.00000  )

     point group C_4v (4mm) 
     there are  5 classes
     the character table:

       E     2C4   C2    2s_v  2s_d 
A_1    1.00  1.00  1.00  1.00  1.00
A_2    1.00  1.00  1.00 -1.00 -1.00
B_1    1.00 -1.00  1.00  1.00 -1.00
B_2    1.00 -1.00  1.00 -1.00  1.00
E      2.00  0.00 -2.00  0.00  0.00

     the symmetry operations in each class and the name of the first element:

     E        1
                                                                 
     2C4      3    4
                                                                 
     C2       2
                                                                 
     2s_v     5    6
                                                                 
     2s_d     7    8
                                                                 

     Band symmetry, C_4v (4mm)  point group:

     e(  1 -  1) =     -5.82255  eV     1   --> A_1  G_1 D_1   
     e(  2 -  2) =      6.01557  eV     1   --> B_2  G_4 D_2'  
     e(  3 -  4) =      6.01908  eV     2   --> E    G_5 D_5   
     e(  5 -  5) =      8.58146  eV     1   --> A_1  G_1 D_1   
     e(  6 -  7) =      8.59114  eV     2   --> E    G_5 D_5   
     e(  8 -  8) =      9.20927  eV     1   --> B_2  G_4 D_2'  
     e(  9 -  9) =     13.73804  eV     1   --> B_2  G_4 D_2'  
     e( 10 - 10) =     13.74941  eV     1   --> A_2  G_2 D_1'  
     e( 11 - 11) =     13.92630  eV     1   --> A_1  G_1 D_1   
     e( 12 - 13) =     17.22803  eV     2   --> E    G_5 D_5   
     e( 14 - 14) =     17.23300  eV     1   --> B_2  G_4 D_2'  
     e( 15 - 15) =     21.34030  eV     1   --> B_2  G_4 D_2'  
     e( 16 - 16) =     28.82699  eV     1   -->   ?

 **************************************************************************

 **************************************************************************

                    xk=(   0.00000,  -0.02357,   0.00000  )

     Band symmetry, C_4v (4mm)  point group:

     e(  1 -  1) =     -5.81895  eV     1   --> A_1  G_1 D_1   
     e(  2 -  2) =      5.98973  eV     1   --> B_2  G_4 D_2'  
     e(  3 -  4) =      6.00364  eV     2   --> E    G_5 D_5   
     e(  5 -  5) =      8.57251  eV     1   --> A_1  G_1 D_1   
     e(  6 -  7) =      8.61101  eV     2   --> E    G_5 D_5   
     e(  8 -  8) =      9.23460  eV     1   --> B_2  G_4 D_2'  
     e(  9 -  9) =     13.70833  eV     1   --> B_2  G_4 D_2'  
     e( 10 - 10) =     13.75340  eV     1   --> A_2  G_2 D_1'  
     e( 11 - 11) =     13.94240  eV     1   --> A_1  G_1 D_1   
     e( 12 - 13) =     17.23431  eV     2   --> E    G_5 D_5   
     e( 14 - 14) =     17.25385  eV     1   --> B_2  G_4 D_2'  
     e( 15 - 15) =     21.36656  eV     1   --> B_2  G_4 D_2'  
     e( 16 - 16) =     28.76972  eV     1   -->   ?

 **************************************************************************

 **************************************************************************

                    xk=(   0.00000,  -0.03536,   0.00000  )

     Band symmetry, C_4v (4mm)  point group:

     e(  1 -  1) =     -5.81296  eV     1   --> A_1  G_1 D_1   
     e(  2 -  2) =      5.94761  eV     1   --> B_2  G_4 D_2'  
     e(  3 -  4) =      5.97844  eV     2   --> E    G_5 D_5   
     e(  5 -  5) =      8.55772  eV     1   --> A_1  G_1 D_1   
     e(  6 -  7) =      8.64359  eV     2   --> E    G_5 D_5   
     e(  8 -  8) =      9.27575  eV     1   --> B_2  G_4 D_2'  
     e(  9 -  9) =     13.66010  eV     1   --> B_2  G_4 D_2'  
     e( 10 - 10) =     13.76004  eV     1   --> A_2  G_2 D_1'  
     e( 11 - 11) =     13.96909  eV     1   --> A_1  G_1 D_1   
     e( 12 - 13) =     17.24479  eV     2   --> E    G_5 D_5   
     e( 14 - 14) =     17.28755  eV     1   --> B_2  G_4 D_2'  
     e( 15 - 15) =     21.41020  eV     1   --> B_2  G_4 D_2'  
     e( 16 - 16) =     28.67855  eV     1   -->   ?

 **************************************************************************

 **************************************************************************

                    xk=(   0.00000,  -0.04714,   0.00000  )

     Band symmetry, C_4v (4mm)  point group:

     e(  1 -  1) =     -5.80456  eV     1   --> A_1  G_1 D_1   
     e(  2 -  2) =      5.89046  eV     1   --> B_2  G_4 D_2'  
     e(  3 -  4) =      5.94423  eV     2   --> E    G_5 D_5   
     e(  5 -  5) =      8.53731  eV     1   --> A_1  G_1 D_1   
     e(  6 -  7) =      8.68814  eV     2   --> E    G_5 D_5   
     e(  8 -  8) =      9.33130  eV     1   --> B_2  G_4 D_2'  
     e(  9 -  9) =     13.59514  eV     1   --> B_2  G_4 D_2'  
     e( 10 - 10) =     13.76934  eV     1   --> A_2  G_2 D_1'  
     e( 11 - 11) =     14.00616  eV     1   --> A_1  G_1 D_1   
     e( 12 - 13) =     17.25944  eV     2   --> E    G_5 D_5   
     e( 14 - 14) =     17.33266  eV     1   --> B_2  G_4 D_2'  
     e( 15 - 15) =     21.47100  eV     1   --> B_2  G_4 D_2'  
     e( 16 - 16) =     28.55855  eV     1   -->   ?

 **************************************************************************

 **************************************************************************

                    xk=(   0.00000,  -0.05893,   0.00000  )

     Band symmetry, C_4v (4mm)  point group:

     e(  1 -  1) =     -5.79377  eV     1   --> A_1  G_1 D_1   
     e(  2 -  2) =      5.81978  eV     1   --> B_2  G_4 D_2'  
     e(  3 -  4) =      5.90192  eV     2   --> E    G_5 D_5   
     e(  5 -  5) =      8.51152  eV     1   --> A_1  G_1 D_1   
     e(  6 -  7) =      8.74374  eV     2   --> E    G_5 D_5   
     e(  8 -  8) =      9.39947  eV     1   --> B_2  G_4 D_2'  
     e(  9 -  9) =     13.51566  eV     1   --> B_2  G_4 D_2'  
     e( 10 - 10) =     13.78129  eV     1   --> A_2  G_2 D_1'  
     e( 11 - 11) =     14.05335  eV     1   --> A_1  G_1 D_1   
     e( 12 - 13) =     17.27827  eV     2   --> E    G_5 D_5   
     e( 14 - 14) =     17.38750  eV     1   --> B_2  G_4 D_2'  
     e( 15 - 15) =     21.54868  eV     1   --> B_2  G_4 D_2'  
     e( 16 - 16) =     28.41497  eV     1   -->   ?

 **************************************************************************

 **************************************************************************

                    xk=(   0.00000,  -0.07071,   0.00000  )

     Band symmetry, C_4v (4mm)  point group:

     e(  1 -  1) =     -5.78059  eV     1   --> A_1  G_1 D_1   
     e(  2 -  2) =      5.73719  eV     1   --> B_2  G_4 D_2'  
     e(  3 -  4) =      5.85249  eV     2   --> E    G_5 D_5   
     e(  5 -  5) =      8.48069  eV     1   --> A_1  G_1 D_1   
     e(  6 -  7) =      8.80939  eV     2   --> E    G_5 D_5   
     e(  8 -  8) =      9.47825  eV     1   --> B_2  G_4 D_2'  
     e(  9 -  9) =     13.42415  eV     1   --> B_2  G_4 D_2'  
     e( 10 - 10) =     13.79590  eV     1   --> A_2  G_2 D_1'  
     e( 11 - 11) =     14.11033  eV     1   --> A_1  G_1 D_1   
     e( 12 - 13) =     17.30128  eV     2   --> E    G_5 D_5   
     e( 14 - 14) =     17.45032  eV     1   --> B_2  G_4 D_2'  
     e( 15 - 15) =     21.64284  eV     1   --> B_2  G_4 D_2'  
     e( 16 - 16) =     28.25262  eV     1   -->   ?

 **************************************************************************

 **************************************************************************

                    xk=(   0.00000,  -0.08250,   0.00000  )

     Band symmetry, C_4v (4mm)  point group:

     e(  1 -  1) =     -5.76502  eV     1   --> A_1  G_1 D_1   
     e(  2 -  2) =      5.64428  eV     1   --> B_2  G_4 D_2'  
     e(  3 -  4) =      5.79698  eV     2   --> E    G_5 D_5   
     e(  5 -  5) =      8.44517  eV     1   --> A_1  G_1 D_1   
     e(  6 -  7) =      8.88405  eV     2   --> E    G_5 D_5   
     e(  8 -  8) =      9.56556  eV     1   --> B_2  G_4 D_2'  
     e(  9 -  9) =     13.32320  eV     1   --> B_2  G_4 D_2'  
     e( 10 - 10) =     13.81317  eV     1   --> A_2  G_2 D_1'  
     e( 11 - 11) =     14.17670  eV     1   --> A_1  G_1 D_1   
     e( 12 - 13) =     17.32845  eV     2   --> E    G_5 D_5   
     e( 14 - 14) =     17.51944  eV     1   --> B_2  G_4 D_2'  
     e( 15 - 15) =     21.75300  eV     1   --> B_2  G_4 D_2'  
     e( 16 - 16) =     28.07551  eV     1   -->   ?

 **************************************************************************

 **************************************************************************

                    xk=(   0.00000,  -0.09428,   0.00000  )

     Band symmetry, C_4v (4mm)  point group:

     e(  1 -  1) =     -5.74705  eV     1   --> A_1  G_1 D_1   
     e(  2 -  2) =      5.54255  eV     1   --> B_2  G_4 D_2'  
     e(  3 -  4) =      5.73634  eV     2   --> E    G_5 D_5   
     e(  5 -  5) =      8.40536  eV     1   --> A_1  G_1 D_1   
     e(  6 -  7) =      8.96675  eV     2   --> E    G_5 D_5   
     e(  8 -  8) =      9.65922  eV     1   --> B_2  G_4 D_2'  
     e(  9 -  9) =     13.21548  eV     1   --> B_2  G_4 D_2'  
     e( 10 - 10) =     13.83309  eV     1   --> A_2  G_2 D_1'  
     e( 11 - 11) =     14.25207  eV     1   --> A_1  G_1 D_1   
     e( 12 - 13) =     17.35977  eV     2   --> E    G_5 D_5   
     e( 14 - 14) =     17.59339  eV     1   --> B_2  G_4 D_2'  
     e( 15 - 15) =     21.87858  eV     1   --> B_2  G_4 D_2'  
     e( 16 - 16) =     27.88690  eV     1   -->   ?

 **************************************************************************

 **************************************************************************

                    xk=(   0.00000,  -0.10607,   0.00000  )

     Band symmetry, C_4v (4mm)  point group:

     e(  1 -  1) =     -5.72670  eV     1   --> A_1  G_1 D_1   
     e(  2 -  2) =      5.43331  eV     1   --> B_2  G_4 D_2'  
     e(  3 -  4) =      5.67150  eV     2   --> E    G_5 D_5   
     e(  5 -  5) =      8.36168  eV     1   --> A_1  G_1 D_1   
     e(  6 -  7) =      9.05658  eV     2   --> E    G_5 D_5   
     e(  8 -  8) =      9.75700  eV     1   --> B_2  G_4 D_2'  
     e(  9 -  9) =     13.10372  eV     1   --> B_2  G_4 D_2'  
     e( 10 - 10) =     13.85566  eV     1   --> A_2  G_2 D_1'  
     e( 11 - 11) =     14.33600  eV     1   --> A_1  G_1 D_1   
     e( 12 - 13) =     17.39522  eV     2   --> E    G_5 D_5   
     e( 14 - 14) =     17.67093  eV     1   --> B_2  G_4 D_2'  
     e( 15 - 15) =     22.01889  eV     1   --> B_2  G_4 D_2'  
     e( 16 - 16) =     27.68938  eV     1   -->   ?

 **************************************************************************

 **************************************************************************

                    xk=(   0.00000,  -0.11785,   0.00000  )

     Band symmetry, C_4v (4mm)  point group:

     e(  1 -  1) =     -5.70397  eV     1   --> A_1  G_1 D_1   
     e(  2 -  2) =      5.31774  eV     1   --> B_2  G_4 D_2'  
     e(  3 -  4) =      5.60324  eV     2   --> E    G_5 D_5   
     e(  5 -  5) =      8.31455  eV     1   --> A_1  G_1 D_1   
     e(  6 -  7) =      9.15270  eV     2   --> E    G_5 D_5   
     e(  8 -  8) =      9.85655  eV     1   --> B_2  G_4 D_2'  
     e(  9 -  9) =     12.99072  eV     1   --> B_2  G_4 D_2'  
     e( 10 - 10) =     13.88089  eV     1   --> A_2  G_2 D_1'  
     e( 11 - 11) =     14.42803  eV     1   --> A_1  G_1 D_1   
     e( 12 - 13) =     17.43480  eV     2   --> E    G_5 D_5   
     e( 14 - 14) =     17.75111  eV     1   --> B_2  G_4 D_2'  
     e( 15 - 15) =     22.17320  eV     1   --> B_2  G_4 D_2'  
     e( 16 - 16) =     27.48498  eV     1   -->   ?

 **************************************************************************

 **************************************************************************

                    xk=(   0.00000,  -0.12964,   0.00000  )

     Band symmetry, C_4v (4mm)  point group:

     e(  1 -  1) =     -5.67885  eV     1   --> A_1  G_1 D_1   
     e(  2 -  2) =      5.19684  eV     1   --> B_2  G_4 D_2'  
     e(  3 -  4) =      5.53231  eV     2   --> E    G_5 D_5   
     e(  5 -  5) =      8.26439  eV     1   --> A_1  G_1 D_1   
     e(  6 -  7) =      9.25438  eV     2   --> E    G_5 D_5   
     e(  8 -  8) =      9.95532  eV     1   --> B_2  G_4 D_2'  
     e(  9 -  9) =     12.87945  eV     1   --> B_2  G_4 D_2'  
     e( 10 - 10) =     13.90878  eV     1   --> A_2  G_2 D_1'  
     e( 11 - 11) =     14.52772  eV     1   --> A_1  G_1 D_1   
     e( 12 - 13) =     17.47848  eV     2   --> E    G_5 D_5   
     e( 14 - 14) =     17.83319  eV     1   --> B_2  G_4 D_2'  
     e( 15 - 15) =     22.34067  eV     1   --> B_2  G_4 D_2'  
     e( 16 - 16) =     27.27532  eV     1   -->   ?

 **************************************************************************

 **************************************************************************

                    xk=(   0.00000,  -0.14142,   0.00000  )

     Band symmetry, C_4v (4mm)  point group:

     e(  1 -  1) =     -5.65136  eV     1   --> A_1  G_1 D_1   
     e(  2 -  2) =      5.07145  eV     1   --> B_2  G_4 D_2'  
     e(  3 -  4) =      5.45932  eV     2   --> E    G_5 D_5   
     e(  5 -  5) =      8.21163  eV     1   --> A_1  G_1 D_1   
     e(  6 -  7) =      9.36099  eV     2   --> E    G_5 D_5   
     e(  8 -  8) =     10.05042  eV     1   --> B_2  G_4 D_2'  
     e(  9 -  9) =     12.77316  eV     1   --> B_2  G_4 D_2'  
     e( 10 - 10) =     13.93931  eV     1   --> A_2  G_2 D_1'  
     e( 11 - 11) =     14.63463  eV     1   --> A_1  G_1 D_1   
     e( 12 - 13) =     17.52623  eV     2   --> E    G_5 D_5   
     e( 14 - 14) =     17.91669  eV     1   --> B_2  G_4 D_2'  
     e( 15 - 15) =     22.52044  eV     1   --> B_2  G_4 D_2'  
     e( 16 - 16) =     27.06170  eV     1   -->   ?

 **************************************************************************

 **************************************************************************

                    xk=(   0.00000,  -0.15321,   0.00000  )

     Band symmetry, C_4v (4mm)  point group:

     e(  1 -  1) =     -5.62150  eV     1   --> A_1  G_1 D_1   
     e(  2 -  2) =      4.94228  eV     1   --> B_2  G_4 D_2'  
     e(  3 -  4) =      5.38481  eV     2   --> E    G_5 D_5   
     e(  5 -  5) =      8.15665  eV     1   --> A_1  G_1 D_1   
     e(  6 -  7) =      9.47196  eV     2   --> E    G_5 D_5   
     e(  8 -  8) =     10.13855  eV     1   --> B_2  G_4 D_2'  
     e(  9 -  9) =     12.67551  eV     1   --> B_2  G_4 D_2'  
     e( 10 - 10) =     13.97250  eV     1   --> A_2  G_2 D_1'  
     e( 11 - 11) =     14.74831  eV     1   --> A_1  G_1 D_1   
     e( 12 - 13) =     17.57802  eV     2   --> E    G_5 D_5   
     e( 14 - 14) =     18.00130  eV     1   --> B_2  G_4 D_2'  
     e( 15 - 15) =     22.71159  eV     1   --> B_2  G_4 D_2'  
     e( 16 - 16) =     26.84516  eV     1   -->   ?

 **************************************************************************

 **************************************************************************

                    xk=(   0.00000,  -0.16499,   0.00000  )

     Band symmetry, C_4v (4mm)  point group:

     e(  1 -  1) =     -5.58927  eV     1   --> A_1  G_1 D_1   
     e(  2 -  2) =      4.80994  eV     1   --> B_2  G_4 D_2'  
     e(  3 -  4) =      5.30926  eV     2   --> E    G_5 D_5   
     e(  5 -  5) =      8.09985  eV     1   --> A_1  G_1 D_1   
     e(  6 -  7) =      9.58681  eV     2   --> E    G_5 D_5   
     e(  8 -  8) =     10.21592  eV     1   --> B_2  G_4 D_2'  
     e(  9 -  9) =     12.59060  eV     1   --> B_2  G_4 D_2'  
     e( 10 - 10) =     14.00834  eV     1   --> A_2  G_2 D_1'  
     e( 11 - 11) =     14.86833  eV     1   --> A_1  G_1 D_1   
     e( 12 - 13) =     17.63380  eV     2   --> E    G_5 D_5   
     e( 14 - 14) =     18.08686  eV     1   --> B_2  G_4 D_2'  
     e( 15 - 15) =     22.91320  eV     1   --> B_2  G_4 D_2'  
     e( 16 - 16) =     26.62658  eV     1   -->   ?

 **************************************************************************

 **************************************************************************

                    xk=(   0.00000,  -0.17678,   0.00000  )

     Band symmetry, C_4v (4mm)  point group:

     e(  1 -  1) =     -5.55467  eV     1   --> A_1  G_1 D_1   
     e(  2 -  2) =      4.67492  eV     1   --> B_2  G_4 D_2'  
     e(  3 -  4) =      5.23306  eV     2   --> E    G_5 D_5   
     e(  5 -  5) =      8.04159  eV     1   --> A_1  G_1 D_1   
     e(  6 -  7) =      9.70513  eV     2   --> E    G_5 D_5   
     e(  8 -  8) =     10.27833  eV     1   --> B_2  G_4 D_2'  
     e(  9 -  9) =     12.52289  eV     1   --> B_2  G_4 D_2'  
     e( 10 - 10) =     14.04683  eV     1   --> A_2  G_2 D_1'  
     e( 11 - 11) =     14.99430  eV     1   --> A_1  G_1 D_1   
     e( 12 - 13) =     17.69354  eV     2   --> E    G_5 D_5   
     e( 14 - 14) =     18.17334  eV     1   --> B_2  G_4 D_2'  
     e( 15 - 15) =     23.12432  eV     1   --> B_2  G_4 D_2'  
     e( 16 - 16) =     26.40666  eV     1   -->   ?

 **************************************************************************

 **************************************************************************

                    xk=(   0.00000,  -0.18856,   0.00000  )

     Band symmetry, C_4v (4mm)  point group:

     e(  1 -  1) =     -5.51772  eV     1   --> A_1  G_1 D_1   
     e(  2 -  2) =      4.53764  eV     1   --> B_2  G_4 D_2'  
     e(  3 -  4) =      5.15655  eV     2   --> E    G_5 D_5   
     e(  5 -  5) =      7.98221  eV     1   --> A_1  G_1 D_1   
     e(  6 -  7) =      9.82655  eV     2   --> E    G_5 D_5   
     e(  8 -  8) =     10.32157  eV     1   --> B_2  G_4 D_2'  
     e(  9 -  9) =     12.47684  eV     1   --> B_2  G_4 D_2'  
     e( 10 - 10) =     14.08797  eV     1   --> A_2  G_2 D_1'  
     e( 11 - 11) =     15.12582  eV     1   --> A_1  G_1 D_1   
     e( 12 - 13) =     17.75717  eV     2   --> E    G_5 D_5   
     e( 14 - 14) =     18.26077  eV     1   --> B_2  G_4 D_2'  
     e( 15 - 15) =     23.34400  eV     1   --> B_2  G_4 D_2'  
     e( 16 - 16) =     26.18601  eV     1   -->   ?

 **************************************************************************

 **************************************************************************

                    xk=(   0.00000,  -0.20035,   0.00000  )

     Band symmetry, C_4v (4mm)  point group:

     e(  1 -  1) =     -5.47843  eV     1   --> A_1  G_1 D_1   
     e(  2 -  2) =      4.39845  eV     1   --> B_2  G_4 D_2'  
     e(  3 -  4) =      5.08004  eV     2   --> E    G_5 D_5   
     e(  5 -  5) =      7.92203  eV     1   --> A_1  G_1 D_1   
     e(  6 -  7) =      9.95076  eV     2   --> E    G_5 D_5   
     e(  8 -  8) =     10.34204  eV     1   --> B_2  G_4 D_2'  
     e(  9 -  9) =     12.45627  eV     1   --> B_2  G_4 D_2'  
     e( 10 - 10) =     14.13175  eV     1   --> A_2  G_2 D_1'  
     e( 11 - 11) =     15.26250  eV     1   --> A_1  G_1 D_1   
     e( 12 - 13) =     17.82462  eV     2   --> E    G_5 D_5   
     e( 14 - 14) =     18.34926  eV     1   --> B_2  G_4 D_2'  
     e( 15 - 15) =     23.57128  eV     1   --> B_2  G_4 D_2'  
     e( 16 - 16) =     25.96518  eV     1   -->   ?

 **************************************************************************

 **************************************************************************

                    xk=(   0.00000,  -0.21213,   0.00000  )

     Band symmetry, C_4v (4mm)  point group:

     e(  1 -  1) =     -5.43678  eV     1   --> A_1  G_1 D_1   
     e(  2 -  2) =      4.25764  eV     1   --> B_2  G_4 D_2'  
     e(  3 -  4) =      5.00378  eV     2   --> E    G_5 D_5   
     e(  5 -  5) =      7.86134  eV     1   --> A_1  G_1 D_1   
     e(  6 -  7) =     10.07748  eV     2   --> E    G_5 D_5   
     e(  8 -  8) =     10.33764  eV     1   --> B_2  G_4 D_2'  
     e(  9 -  9) =     12.46344  eV     1   --> B_2  G_4 D_2'  
     e( 10 - 10) =     14.17818  eV     1   --> A_2  G_2 D_1'  
     e( 11 - 11) =     15.40399  eV     1   --> A_1  G_1 D_1   
     e( 12 - 13) =     17.89580  eV     2   --> E    G_5 D_5   
     e( 14 - 14) =     18.43897  eV     1   --> B_2  G_4 D_2'  
     e( 15 - 15) =     23.80522  eV     1   --> B_2  G_4 D_2'  
     e( 16 - 16) =     25.74463  eV     1   -->   ?

 **************************************************************************

 **************************************************************************

                    xk=(   0.00000,  -0.22392,   0.00000  )

     Band symmetry, C_4v (4mm)  point group:

     e(  1 -  1) =     -5.39280  eV     1   --> A_1  G_1 D_1   
     e(  2 -  2) =      4.11546  eV     1   --> B_2  G_4 D_2'  
     e(  3 -  4) =      4.92799  eV     2   --> E    G_5 D_5   
     e(  5 -  5) =      7.80043  eV     1   --> A_1  G_1 D_1   
     e(  6 -  7) =     10.20648  eV     2   --> E    G_5 D_5   
     e(  8 -  8) =     10.30838  eV     1   --> B_2  G_4 D_2'  
     e(  9 -  9) =     12.49853  eV     1   --> B_2  G_4 D_2'  
     e( 10 - 10) =     14.22726  eV     1   --> A_2  G_2 D_1'  
     e( 11 - 11) =     15.54994  eV     1   --> A_1  G_1 D_1   
     e( 12 - 13) =     17.97061  eV     2   --> E    G_5 D_5   
     e( 14 - 14) =     18.53006  eV     1   --> B_2  G_4 D_2'  
     e( 15 - 15) =     24.04488  eV     1   --> B_2  G_4 D_2'  
     e( 16 - 16) =     25.52480  eV     1   -->   ?

 **************************************************************************

 **************************************************************************

                    xk=(   0.00000,  -0.23570,   0.00000  )

     Band symmetry, C_4v (4mm)  point group:

     e(  1 -  1) =     -5.34649  eV     1   --> A_1  G_1 D_1   
     e(  2 -  2) =      3.97212  eV     1   --> B_2  G_4 D_2'  
     e(  3 -  4) =      4.85285  eV     2   --> E    G_5 D_5   
     e(  5 -  5) =      7.73954  eV     1   --> A_1  G_1 D_1   
     e(  6 -  6) =     10.25624  eV     1   --> B_2  G_4 D_2'  
     e(  7 -  8) =     10.33756  eV     2   --> E    G_5 D_5   
     e(  9 -  9) =     12.55968  eV     1   --> B_2  G_4 D_2'  
     e( 10 - 10) =     14.27899  eV     1   --> A_2  G_2 D_1'  
     e( 11 - 11) =     15.70000  eV     1   --> A_1  G_1 D_1   
     e( 12 - 13) =     18.04892  eV     2   --> E    G_5 D_5   
     e( 14 - 14) =     18.62272  eV     1   --> B_2  G_4 D_2'  
     e( 15 - 15) =     24.28929  eV     1   --> B_2  G_4 D_2'  
     e( 16 - 16) =     25.30609  eV     1   -->   ?

 **************************************************************************

 **************************************************************************

                    xk=(   0.00000,  -0.24749,   0.00000  )

     Band symmetry, C_4v (4mm)  point group:

     e(  1 -  1) =     -5.29786  eV     1   --> A_1  G_1 D_1   
     e(  2 -  2) =      3.82779  eV     1   --> B_2  G_4 D_2'  
     e(  3 -  4) =      4.77854  eV     2   --> E    G_5 D_5   
     e(  5 -  5) =      7.67890  eV     1   --> A_1  G_1 D_1   
     e(  6 -  6) =     10.18459  eV     1   --> B_2  G_4 D_2'  
     e(  7 -  8) =     10.47053  eV     2   --> E    G_5 D_5   
     e(  9 -  9) =     12.64365  eV     1   --> B_2  G_4 D_2'  
     e( 10 - 10) =     14.33335  eV     1   --> A_2  G_2 D_1'  
     e( 11 - 11) =     15.85386  eV     1   --> A_1  G_1 D_1   
     e( 12 - 13) =     18.13058  eV     2   --> E    G_5 D_5   
     e( 14 - 14) =     18.71716  eV     1   --> B_2  G_4 D_2'  
     e( 15 - 15) =     24.53749  eV     1   --> B_2  G_4 D_2'  
     e( 16 - 16) =     25.08888  eV     1   -->   ?

 **************************************************************************

 **************************************************************************

                    xk=(   0.00000,  -0.25927,   0.00000  )

     Band symmetry, C_4v (4mm)  point group:

     e(  1 -  1) =     -5.24691  eV     1   --> A_1  G_1 D_1   
     e(  2 -  2) =      3.68264  eV     1   --> B_2  G_4 D_2'  
     e(  3 -  4) =      4.70519  eV     2   --> E    G_5 D_5   
     e(  5 -  5) =      7.61874  eV     1   --> A_1  G_1 D_1   
     e(  6 -  6) =     10.09723  eV     1   --> B_2  G_4 D_2'  
     e(  7 -  8) =     10.60522  eV     2   --> E    G_5 D_5   
     e(  9 -  9) =     12.74671  eV     1   --> B_2  G_4 D_2'  
     e( 10 - 10) =     14.39036  eV     1   --> A_2  G_2 D_1'  
     e( 11 - 11) =     16.01119  eV     1   --> A_1  G_1 D_1   
     e( 12 - 13) =     18.21539  eV     2   --> E    G_5 D_5   
     e( 14 - 14) =     18.81355  eV     1   --> B_2  G_4 D_2'  
     e( 15 - 15) =     24.78850  eV     1   --> B_2  G_4 D_2'  
     e( 16 - 16) =     24.87359  eV     1   -->   ?

 **************************************************************************

 **************************************************************************

                    xk=(   0.00000,  -0.27106,   0.00000  )

     Band symmetry, C_4v (4mm)  point group:

     e(  1 -  1) =     -5.19366  eV     1   --> A_1  G_1 D_1   
     e(  2 -  2) =      3.53678  eV     1   --> B_2  G_4 D_2'  
     e(  3 -  4) =      4.63294  eV     2   --> E    G_5 D_5   
     e(  5 -  5) =      7.55924  eV     1   --> A_1  G_1 D_1   
     e(  6 -  6) =      9.99784  eV     1   --> B_2  G_4 D_2'  
     e(  7 -  8) =     10.74150  eV     2   --> E    G_5 D_5   
     e(  9 -  9) =     12.86528  eV     1   --> B_2  G_4 D_2'  
     e( 10 - 10) =     14.45001  eV     1   --> A_2  G_2 D_1'  
     e( 11 - 11) =     16.17166  eV     1   --> A_1  G_1 D_1   
     e( 12 - 13) =     18.30313  eV     2   --> E    G_5 D_5   
     e( 14 - 14) =     18.91210  eV     1   --> B_2  G_4 D_2'  
     e( 15 - 16) =     24.66060  eV     2   --> E    G_5 D_5   

 **************************************************************************

 **************************************************************************

                    xk=(   0.00000,  -0.28284,   0.00000  )

     Band symmetry, C_4v (4mm)  point group:

     e(  1 -  1) =     -5.13811  eV     1   --> A_1  G_1 D_1   
     e(  2 -  2) =      3.39034  eV     1   --> B_2  G_4 D_2'  
     e(  3 -  4) =      4.56190  eV     2   --> E    G_5 D_5   
     e(  5 -  5) =      7.50058  eV     1   --> A_1  G_1 D_1   
     e(  6 -  6) =      9.88958  eV     1   --> B_2  G_4 D_2'  
     e(  7 -  8) =     10.87924  eV     2   --> E    G_5 D_5   
     e(  9 -  9) =     12.99627  eV     1   --> B_2  G_4 D_2'  
     e( 10 - 10) =     14.51229  eV     1   --> A_2  G_2 D_1'  
     e( 11 - 11) =     16.33496  eV     1   --> A_1  G_1 D_1   
     e( 12 - 13) =     18.39351  eV     2   --> E    G_5 D_5   
     e( 14 - 14) =     19.01298  eV     1   --> B_2  G_4 D_2'  
     e( 15 - 16) =     24.45035  eV     2   --> E    G_5 D_5   

 **************************************************************************

 **************************************************************************

                    xk=(   0.00000,  -0.29463,   0.00000  )

     Band symmetry, C_4v (4mm)  point group:

     e(  1 -  1) =     -5.08027  eV     1   --> A_1  G_1 D_1   
     e(  2 -  2) =      3.24341  eV     1   --> B_2  G_4 D_2'  
     e(  3 -  4) =      4.49216  eV     2   --> E    G_5 D_5   
     e(  5 -  5) =      7.44294  eV     1   --> A_1  G_1 D_1   
     e(  6 -  6) =      9.77502  eV     1   --> B_2  G_4 D_2'  
     e(  7 -  8) =     11.01833  eV     2   --> E    G_5 D_5   
     e(  9 -  9) =     13.13713  eV     1   --> B_2  G_4 D_2'  
     e( 10 - 10) =     14.57721  eV     1   --> A_2  G_2 D_1'  
     e( 11 - 11) =     16.50076  eV     1   --> A_1  G_1 D_1   
     e( 12 - 13) =     18.48620  eV     2   --> E    G_5 D_5   
     e( 14 - 14) =     19.11636  eV     1   --> B_2  G_4 D_2'  
     e( 15 - 16) =     24.24331  eV     2   --> E    G_5 D_5   

 **************************************************************************

 **************************************************************************

                    xk=(   0.00000,  -0.30641,   0.00000  )

     Band symmetry, C_4v (4mm)  point group:

     e(  1 -  1) =     -5.02016  eV     1   --> A_1  G_1 D_1   
     e(  2 -  2) =      3.09608  eV     1   --> B_2  G_4 D_2'  
     e(  3 -  4) =      4.42382  eV     2   --> E    G_5 D_5   
     e(  5 -  5) =      7.38646  eV     1   --> A_1  G_1 D_1   
     e(  6 -  6) =      9.65620  eV     1   --> B_2  G_4 D_2'  
     e(  7 -  8) =     11.15867  eV     2   --> E    G_5 D_5   
     e(  9 -  9) =     13.28586  eV     1   --> B_2  G_4 D_2'  
     e( 10 - 10) =     14.64477  eV     1   --> A_2  G_2 D_1'  
     e( 11 - 11) =     16.66873  eV     1   --> A_1  G_1 D_1   
     e( 12 - 13) =     18.58075  eV     2   --> E    G_5 D_5   
     e( 14 - 14) =     19.22241  eV     1   --> B_2  G_4 D_2'  
     e( 15 - 16) =     24.04004  eV     2   --> E    G_5 D_5   

 **************************************************************************

 **************************************************************************

                    xk=(   0.00000,  -0.31820,   0.00000  )

     Band symmetry, C_4v (4mm)  point group:

     e(  1 -  1) =     -4.95778  eV     1   --> A_1  G_1 D_1   
     e(  2 -  2) =      2.94843  eV     1   --> B_2  G_4 D_2'  
     e(  3 -  4) =      4.35694  eV     2   --> E    G_5 D_5   
     e(  5 -  5) =      7.33129  eV     1   --> A_1  G_1 D_1   
     e(  6 -  6) =      9.53474  eV     1   --> B_2  G_4 D_2'  
     e(  7 -  8) =     11.30018  eV     2   --> E    G_5 D_5   
     e(  9 -  9) =     13.44087  eV     1   --> B_2  G_4 D_2'  
     e( 10 - 10) =     14.71496  eV     1   --> A_2  G_2 D_1'  
     e( 11 - 11) =     16.83852  eV     1   --> A_1  G_1 D_1   
     e( 12 - 13) =     18.67664  eV     2   --> E    G_5 D_5   
     e( 14 - 14) =     19.33129  eV     1   --> B_2  G_4 D_2'  
     e( 15 - 16) =     23.84115  eV     2   --> E    G_5 D_5   

 **************************************************************************

 **************************************************************************

                    xk=(   0.00000,  -0.32998,   0.00000  )

     Band symmetry, C_4v (4mm)  point group:

     e(  1 -  1) =     -4.89315  eV     1   --> A_1  G_1 D_1   
     e(  2 -  2) =      2.80053  eV     1   --> B_2  G_4 D_2'  
     e(  3 -  4) =      4.29160  eV     2   --> E    G_5 D_5   
     e(  5 -  5) =      7.27755  eV     1   --> A_1  G_1 D_1   
     e(  6 -  6) =      9.41187  eV     1   --> B_2  G_4 D_2'  
     e(  7 -  8) =     11.44276  eV     2   --> E    G_5 D_5   
     e(  9 -  9) =     13.60091  eV     1   --> B_2  G_4 D_2'  
     e( 10 - 10) =     14.78777  eV     1   --> A_2  G_2 D_1'  
     e( 11 - 11) =     17.00975  eV     1   --> A_1  G_1 D_1   
     e( 12 - 13) =     18.77321  eV     2   --> E    G_5 D_5   
     e( 14 - 14) =     19.44315  eV     1   --> B_2  G_4 D_2'  
     e( 15 - 16) =     23.64738  eV     2   --> E    G_5 D_5   

 **************************************************************************

 **************************************************************************

                    xk=(   0.00000,  -0.34177,   0.00000  )

     Band symmetry, C_4v (4mm)  point group:

     e(  1 -  1) =     -4.82628  eV     1   --> A_1  G_1 D_1   
     e(  2 -  2) =      2.65245  eV     1   --> B_2  G_4 D_2'  
     e(  3 -  4) =      4.22787  eV     2   --> E    G_5 D_5   
     e(  5 -  5) =      7.22536  eV     1   --> A_1  G_1 D_1   
     e(  6 -  6) =      9.28858  eV     1   --> B_2  G_4 D_2'  
     e(  7 -  8) =     11.58636  eV     2   --> E    G_5 D_5   
     e(  9 -  9) =     13.76499  eV     1   --> B_2  G_4 D_2'  
     e( 10 - 10) =     14.86322  eV     1   --> A_2  G_2 D_1'  
     e( 11 - 11) =     17.18203  eV     1   --> A_1  G_1 D_1   
     e( 12 - 13) =     18.86963  eV     2   --> E    G_5 D_5   
     e( 14 - 14) =     19.55811  eV     1   --> B_2  G_4 D_2'  
     e( 15 - 16) =     23.45964  eV     2   --> E    G_5 D_5   

 **************************************************************************

 **************************************************************************

                    xk=(   0.00000,  -0.35355,   0.00000  )

     Band symmetry, C_4v (4mm)  point group:

     e(  1 -  1) =     -4.75718  eV     1   --> A_1  G_1 D_1   
     e(  2 -  2) =      2.50425  eV     1   --> B_2  G_4 D_2'  
     e(  3 -  4) =      4.16578  eV     2   --> E    G_5 D_5   
     e(  5 -  5) =      7.17483  eV     1   --> A_1  G_1 D_1   
     e(  6 -  6) =      9.16564  eV     1   --> B_2  G_4 D_2'  
     e(  7 -  8) =     11.73091  eV     2   --> E    G_5 D_5   
     e(  9 -  9) =     13.93233  eV     1   --> B_2  G_4 D_2'  
     e( 10 - 10) =     14.94130  eV     1   --> A_2  G_2 D_1'  
     e( 11 - 11) =     17.35494  eV     1   --> A_1  G_1 D_1   
     e( 12 - 13) =     18.96486  eV     2   --> E    G_5 D_5   
     e( 14 - 14) =     19.67630  eV     1   --> B_2  G_4 D_2'  
     e( 15 - 16) =     23.27901  eV     2   --> E    G_5 D_5   

 **************************************************************************

 **************************************************************************

                    xk=(   0.00000,  -0.36534,   0.00000  )

     Band symmetry, C_4v (4mm)  point group:

     e(  1 -  1) =     -4.68586  eV     1   --> A_1  G_1 D_1   
     e(  2 -  2) =      2.35599  eV     1   --> B_2  G_4 D_2'  
     e(  3 -  4) =      4.10541  eV     2   --> E    G_5 D_5   
     e(  5 -  5) =      7.12607  eV     1   --> A_1  G_1 D_1   
     e(  6 -  6) =      9.04366  eV     1   --> B_2  G_4 D_2'  
     e(  7 -  8) =     11.87636  eV     2   --> E    G_5 D_5   
     e(  9 -  9) =     14.10227  eV     1   --> B_2  G_4 D_2'  
     e( 10 - 10) =     15.02199  eV     1   --> A_2  G_2 D_1'  
     e( 11 - 11) =     17.52801  eV     1   --> A_1  G_1 D_1   
     e( 12 - 13) =     19.05761  eV     2   --> E    G_5 D_5   
     e( 14 - 14) =     19.79785  eV     1   --> B_2  G_4 D_2'  
     e( 15 - 16) =     23.10683  eV     2   --> E    G_5 D_5   

 **************************************************************************

 **************************************************************************

                    xk=(   0.00000,  -0.37712,   0.00000  )

     Band symmetry, C_4v (4mm)  point group:

     e(  1 -  1) =     -4.61234  eV     1   --> A_1  G_1 D_1   
     e(  2 -  2) =      2.20771  eV     1   --> B_2  G_4 D_2'  
     e(  3 -  4) =      4.04678  eV     2   --> E    G_5 D_5   
     e(  5 -  5) =      7.07916  eV     1   --> A_1  G_1 D_1   
     e(  6 -  6) =      8.92313  eV     1   --> B_2  G_4 D_2'  
     e(  7 -  8) =     12.02265  eV     2   --> E    G_5 D_5   
     e(  9 -  9) =     14.27428  eV     1   --> B_2  G_4 D_2'  
     e( 10 - 10) =     15.10531  eV     1   --> A_2  G_2 D_1'  
     e( 11 - 11) =     17.70071  eV     1   --> A_1  G_1 D_1   
     e( 12 - 13) =     19.14625  eV     2   --> E    G_5 D_5   
     e( 14 - 14) =     19.92285  eV     1   --> B_2  G_4 D_2'  
[...]

 **************************************************************************

                    xk=(  -0.15026,  -0.70711,   0.15026  )

     zone border point and non-symmorphic group 
     symmetry decomposition not available

 **************************************************************************

 **************************************************************************

                    xk=(  -0.15910,  -0.70711,   0.15910  )

     zone border point and non-symmorphic group 
     symmetry decomposition not available

 **************************************************************************

 **************************************************************************

                    xk=(  -0.16794,  -0.70711,   0.16794  )

     zone border point and non-symmorphic group 
     symmetry decomposition not available

 **************************************************************************

 **************************************************************************

                    xk=(  -0.17678,  -0.70711,   0.17678  )

     zone border point and non-symmorphic group 
     symmetry decomposition not available

 **************************************************************************

 **************************************************************************

                    xk=(  -0.18562,  -0.70711,   0.18562  )

     zone border point and non-symmorphic group 
     symmetry decomposition not available

 **************************************************************************

 **************************************************************************

                    xk=(  -0.19445,  -0.70711,   0.19445  )

     zone border point and non-symmorphic group 
     symmetry decomposition not available

 **************************************************************************

 **************************************************************************

                    xk=(  -0.20329,  -0.70711,   0.20329  )

     zone border point and non-symmorphic group 
     symmetry decomposition not available

 **************************************************************************

 **************************************************************************

                    xk=(  -0.21213,  -0.70711,   0.21213  )

     zone border point and non-symmorphic group 
     symmetry decomposition not available

 **************************************************************************

 **************************************************************************

                    xk=(  -0.22097,  -0.70711,   0.22097  )

     zone border point and non-symmorphic group 
     symmetry decomposition not available

 **************************************************************************

 **************************************************************************

                    xk=(  -0.22981,  -0.70711,   0.22981  )

     zone border point and non-symmorphic group 
     symmetry decomposition not available

 **************************************************************************

 **************************************************************************

                    xk=(  -0.23865,  -0.70711,   0.23865  )

     zone border point and non-symmorphic group 
     symmetry decomposition not available

 **************************************************************************

 **************************************************************************

                    xk=(  -0.24749,  -0.70711,   0.24749  )

     zone border point and non-symmorphic group 
     symmetry decomposition not available

 **************************************************************************

 **************************************************************************

                    xk=(  -0.25633,  -0.70711,   0.25633  )

     zone border point and non-symmorphic group 
     symmetry decomposition not available

 **************************************************************************

 **************************************************************************

                    xk=(  -0.26517,  -0.70711,   0.26517  )

     zone border point and non-symmorphic group 
     symmetry decomposition not available

 **************************************************************************

 **************************************************************************

                    xk=(  -0.27400,  -0.70711,   0.27400  )

     zone border point and non-symmorphic group 
     symmetry decomposition not available

 **************************************************************************

 **************************************************************************

                    xk=(  -0.28284,  -0.70711,   0.28284  )

     zone border point and non-symmorphic group 
     symmetry decomposition not available

 **************************************************************************

 **************************************************************************

                    xk=(  -0.29168,  -0.70711,   0.29168  )

     zone border point and non-symmorphic group 
     symmetry decomposition not available

 **************************************************************************

 **************************************************************************

                    xk=(  -0.30052,  -0.70711,   0.30052  )

     zone border point and non-symmorphic group 
     symmetry decomposition not available

 **************************************************************************

 **************************************************************************

                    xk=(  -0.30936,  -0.70711,   0.30936  )

     zone border point and non-symmorphic group 
     symmetry decomposition not available

 **************************************************************************

 **************************************************************************

                    xk=(  -0.31820,  -0.70711,   0.31820  )

     zone border point and non-symmorphic group 
     symmetry decomposition not available

 **************************************************************************

 **************************************************************************

                    xk=(  -0.32704,  -0.70711,   0.32704  )

     zone border point and non-symmorphic group 
     symmetry decomposition not available

 **************************************************************************

 **************************************************************************

                    xk=(  -0.33588,  -0.70711,   0.33588  )

     zone border point and non-symmorphic group 
     symmetry decomposition not available

 **************************************************************************

 **************************************************************************

                    xk=(  -0.34471,  -0.70711,   0.34471  )

     zone border point and non-symmorphic group 
     symmetry decomposition not available

 **************************************************************************

 **************************************************************************

                    xk=(  -0.35355,  -0.70711,   0.35355  )

     zone border point and non-symmorphic group 
     symmetry decomposition not available

 **************************************************************************

 **************************************************************************

                    xk=(  -0.36239,  -0.70711,   0.36239  )

     zone border point and non-symmorphic group 
     symmetry decomposition not available

 **************************************************************************

 **************************************************************************

                    xk=(  -0.37123,  -0.70711,   0.37123  )

     zone border point and non-symmorphic group 
     symmetry decomposition not available

 **************************************************************************

 **************************************************************************

                    xk=(  -0.38007,  -0.70711,   0.38007  )

     zone border point and non-symmorphic group 
     symmetry decomposition not available

 **************************************************************************

 **************************************************************************

                    xk=(  -0.38891,  -0.70711,   0.38891  )

     zone border point and non-symmorphic group 
     symmetry decomposition not available

 **************************************************************************

 **************************************************************************

                    xk=(  -0.39775,  -0.70711,   0.39775  )

     zone border point and non-symmorphic group 
     symmetry decomposition not available

 **************************************************************************

 **************************************************************************

                    xk=(  -0.40659,  -0.70711,   0.40659  )

     zone border point and non-symmorphic group 
     symmetry decomposition not available

 **************************************************************************

 **************************************************************************

                    xk=(  -0.41543,  -0.70711,   0.41543  )

     zone border point and non-symmorphic group 
     symmetry decomposition not available

 **************************************************************************

 **************************************************************************

                    xk=(  -0.42426,  -0.70711,   0.42426  )

     zone border point and non-symmorphic group 
     symmetry decomposition not available

 **************************************************************************

 **************************************************************************

                    xk=(  -0.43310,  -0.70711,   0.43310  )

     zone border point and non-symmorphic group 
     symmetry decomposition not available

 **************************************************************************

 **************************************************************************

                    xk=(  -0.44194,  -0.70711,   0.44194  )

     zone border point and non-symmorphic group 
     symmetry decomposition not available

 **************************************************************************

 **************************************************************************

                    xk=(  -0.45078,  -0.70711,   0.45078  )

     zone border point and non-symmorphic group 
     symmetry decomposition not available

 **************************************************************************

 **************************************************************************

                    xk=(  -0.45962,  -0.70711,   0.45962  )

     zone border point and non-symmorphic group 
     symmetry decomposition not available

 **************************************************************************

 **************************************************************************

                    xk=(  -0.46846,  -0.70711,   0.46846  )

     zone border point and non-symmorphic group 
     symmetry decomposition not available

 **************************************************************************

 **************************************************************************

                    xk=(  -0.47730,  -0.70711,   0.47730  )

     zone border point and non-symmorphic group 
     symmetry decomposition not available

 **************************************************************************

 **************************************************************************

                    xk=(  -0.48614,  -0.70711,   0.48614  )

     zone border point and non-symmorphic group 
     symmetry decomposition not available

 **************************************************************************

 **************************************************************************

                    xk=(  -0.49497,  -0.70711,   0.49497  )

     zone border point and non-symmorphic group 
     symmetry decomposition not available

 **************************************************************************

 **************************************************************************

                    xk=(  -0.50381,  -0.70711,   0.50381  )

     zone border point and non-symmorphic group 
     symmetry decomposition not available

 **************************************************************************

 **************************************************************************

                    xk=(  -0.51265,  -0.70711,   0.51265  )

     zone border point and non-symmorphic group 
     symmetry decomposition not available

 **************************************************************************

 **************************************************************************

                    xk=(  -0.52149,  -0.70711,   0.52149  )

     zone border point and non-symmorphic group 
     symmetry decomposition not available

 **************************************************************************

 **************************************************************************

                    xk=(  -0.53033,  -0.70711,   0.53033  )

     zone border point and non-symmorphic group 
     symmetry decomposition not available

 **************************************************************************

 **************************************************************************

                    xk=(  -0.53917,  -0.70711,   0.53917  )

     zone border point and non-symmorphic group 
     symmetry decomposition not available

 **************************************************************************

 **************************************************************************

                    xk=(  -0.54801,  -0.70711,   0.54801  )

     zone border point and non-symmorphic group 
     symmetry decomposition not available

 **************************************************************************

 **************************************************************************

                    xk=(  -0.55685,  -0.70711,   0.55685  )

     zone border point and non-symmorphic group 
     symmetry decomposition not available

 **************************************************************************

 **************************************************************************

                    xk=(  -0.56569,  -0.70711,   0.56569  )

     zone border point and non-symmorphic group 
     symmetry decomposition not available

 **************************************************************************

 **************************************************************************

                    xk=(  -0.57452,  -0.70711,   0.57452  )

     zone border point and non-symmorphic group 
     symmetry decomposition not available

 **************************************************************************

 **************************************************************************

                    xk=(  -0.58336,  -0.70711,   0.58336  )

     zone border point and non-symmorphic group 
     symmetry decomposition not available

 **************************************************************************

 **************************************************************************

                    xk=(  -0.59220,  -0.70711,   0.59220  )

     zone border point and non-symmorphic group 
     symmetry decomposition not available

 **************************************************************************

 **************************************************************************

                    xk=(  -0.60104,  -0.70711,   0.60104  )

     zone border point and non-symmorphic group 
     symmetry decomposition not available

 **************************************************************************

 **************************************************************************

                    xk=(  -0.60988,  -0.70711,   0.60988  )

     zone border point and non-symmorphic group 
     symmetry decomposition not available

 **************************************************************************

 **************************************************************************

                    xk=(  -0.61872,  -0.70711,   0.61872  )

     zone border point and non-symmorphic group 
     symmetry decomposition not available

 **************************************************************************

 **************************************************************************

                    xk=(  -0.62756,  -0.70711,   0.62756  )

     zone border point and non-symmorphic group 
     symmetry decomposition not available

 **************************************************************************

 **************************************************************************

                    xk=(  -0.63640,  -0.70711,   0.63640  )

     zone border point and non-symmorphic group 
     symmetry decomposition not available

 **************************************************************************

 **************************************************************************

                    xk=(  -0.64523,  -0.70711,   0.64523  )

     zone border point and non-symmorphic group 
     symmetry decomposition not available

 **************************************************************************

 **************************************************************************

                    xk=(  -0.65407,  -0.70711,   0.65407  )

     zone border point and non-symmorphic group 
     symmetry decomposition not available

 **************************************************************************

 **************************************************************************

                    xk=(  -0.66291,  -0.70711,   0.66291  )

     zone border point and non-symmorphic group 
     symmetry decomposition not available

 **************************************************************************

 **************************************************************************

                    xk=(  -0.67175,  -0.70711,   0.67175  )

     zone border point and non-symmorphic group 
     symmetry decomposition not available

 **************************************************************************

 **************************************************************************

                    xk=(  -0.68059,  -0.70711,   0.68059  )

     zone border point and non-symmorphic group 
     symmetry decomposition not available

 **************************************************************************

 **************************************************************************

                    xk=(  -0.68943,  -0.70711,   0.68943  )

     zone border point and non-symmorphic group 
     symmetry decomposition not available

 **************************************************************************

 **************************************************************************

                    xk=(  -0.69827,  -0.70711,   0.69827  )

     zone border point and non-symmorphic group 
     symmetry decomposition not available

 **************************************************************************

 **************************************************************************

                    xk=(  -0.70711,  -0.70711,   0.70711  )

     zone border point and non-symmorphic group 
     symmetry decomposition not available

 **************************************************************************
 
     BANDS        :      9.27s CPU     16.36s WALL

 
   This run was terminated on:  21:40:18  10Jun2026            

=------------------------------------------------------------------------------=
   JOB DONE.
=------------------------------------------------------------------------------=
