
     Program PWSCF v.7.1 starts on 10Jun2026 at 21:39:47 

     This program is part of the open-source Quantum ESPRESSO suite
     for quantum simulation of materials; please cite
         "P. Giannozzi et al., J. Phys.:Condens. Matter 21 395502 (2009);
         "P. Giannozzi et al., J. Phys.:Condens. Matter 29 465901 (2017);
         "P. Giannozzi et al., J. Chem. Phys. 152 154105 (2020);
          URL http://www.quantum-espresso.org", 
     in publications or presentations arising from this work. More details at
     http://www.quantum-espresso.org/quote

     Parallel version (MPI & OpenMP), running on       7 processor cores
     Number of MPI processes:                 7
     Threads/MPI process:                     1

     MPI processes distributed on     7 nodes
     224214 MiB available memory on the printing compute node when the environment starts
 
     Waiting for input...
     Reading input from standard input
Warning: card &CELL ignored
Warning: card / ignored
Warning: card / ignored

     Current dimensions of program PWSCF are:
     Max number of different atomic species (ntypx) = 10
     Max number of k-points (npk) =  40000
     Max angular momentum in pseudopotentials (lmaxx) =  4
     Message from routine setup:
     using ibrav=0 with symmetry is DISCOURAGED, use correct ibrav instead
 
     K-points division:     npool     =       7
     Subspace diagonalization in iterative solution of the eigenvalue problem:
     a serial algorithm will be used

 
     G-vector sticks info
     --------------------
     sticks:   dense  smooth     PW     G-vecs:    dense   smooth      PW
     Sum        1483     583    187                37117     9377    1687
 
     Using Slab Decomposition
 


     bravais-lattice index     =            0
     lattice parameter (alat)  =       7.2959  a.u.
     unit-cell volume          =     274.6089 (a.u.)^3
     number of atoms/cell      =            2
     number of atomic types    =            1
     number of electrons       =         8.00
     number of Kohn-Sham states=            8
     kinetic-energy cutoff     =      40.0000  Ry
     charge density cutoff     =     400.0000  Ry
     scf convergence threshold =      1.0E-08
     mixing beta               =       0.0750
     number of iterations used =            8  plain     mixing
     Exchange-correlation= SLA  PW   PBE  PBE
                           (   1   4   3   4   0   0   0)

     celldm(1)=   7.295860  celldm(2)=   0.000000  celldm(3)=   0.000000
     celldm(4)=   0.000000  celldm(5)=   0.000000  celldm(6)=   0.000000

     crystal axes: (cart. coord. in units of alat)
               a(1) = (   0.000000   0.707107   0.707107 )  
               a(2) = (   0.707107   0.000000   0.707107 )  
               a(3) = (   0.707107   0.707107   0.000000 )  

     reciprocal axes: (cart. coord. in units 2 pi/alat)
               b(1) = ( -0.707107  0.707107  0.707107 )  
               b(2) = (  0.707107 -0.707107  0.707107 )  
               b(3) = (  0.707107  0.707107 -0.707107 )  


     PseudoPot. # 1 for Si read from file:
     /home/k0750/k075000/PSPOT/si_pbe_v1.uspp.F.UPF
     MD5 check sum: a056efeee980c13900f22a371efd63c1
     Pseudo is Ultrasoft + core correction, Zval =  4.0
     Generated by new atomic code, or converted to UPF format
     Using radial grid of  899 points,  6 beta functions with: 
                l(1) =   0
                l(2) =   0
                l(3) =   1
                l(4) =   1
                l(5) =   2
                l(6) =   2
     Q(r) pseudized with  8 coefficients,  rinner =    0.900   0.900   0.900
                                                       0.900   0.900

     atomic species   valence    mass     pseudopotential
        Si             4.00    28.00000     Si( 1.00)

     48 Sym. Ops., with inversion, found (24 have fractional translation)



   Cartesian axes

     site n.     atom                  positions (alat units)
         1           Si  tau(   1) = (   0.0000000   0.0000000   0.0000000  )
         2           Si  tau(   2) = (   0.3535534   0.3535534   0.3535534  )

     number of k points=    72  Methfessel-Paxton smearing, width (Ry)=  0.0100
                       cart. coord. in units 2pi/alat
        k(    1) = (   0.0000000   0.0000000   0.0000000), wk =   0.0011574
        k(    2) = (   0.0589256   0.0589256  -0.0589256), wk =   0.0092593
        k(    3) = (   0.1178511   0.1178511  -0.1178511), wk =   0.0092593
        k(    4) = (   0.1767767   0.1767767  -0.1767767), wk =   0.0092593
        k(    5) = (   0.2357023   0.2357023  -0.2357023), wk =   0.0092593
        k(    6) = (   0.2946278   0.2946278  -0.2946278), wk =   0.0092593
        k(    7) = (  -0.3535534  -0.3535534   0.3535534), wk =   0.0046296
        k(    8) = (   0.1178511   0.0000000   0.0000000), wk =   0.0069444
        k(    9) = (   0.1767767   0.0589256  -0.0589256), wk =   0.0277778
        k(   10) = (   0.2357023   0.1178511  -0.1178511), wk =   0.0277778
        k(   11) = (   0.2946278   0.1767767  -0.1767767), wk =   0.0277778
        k(   12) = (   0.3535534   0.2357023  -0.2357023), wk =   0.0277778
        k(   13) = (  -0.2946278  -0.4124790   0.4124790), wk =   0.0277778
        k(   14) = (  -0.2357023  -0.3535534   0.3535534), wk =   0.0277778
        k(   15) = (  -0.1767767  -0.2946278   0.2946278), wk =   0.0277778
        k(   16) = (  -0.1178511  -0.2357023   0.2357023), wk =   0.0277778
        k(   17) = (  -0.0589256  -0.1767767   0.1767767), wk =   0.0277778
        k(   18) = (  -0.0000000  -0.1178511   0.1178511), wk =   0.0138889
        k(   19) = (   0.2357023   0.0000000   0.0000000), wk =   0.0069444
        k(   20) = (   0.2946278   0.0589256  -0.0589256), wk =   0.0277778
        k(   21) = (   0.3535534   0.1178511  -0.1178511), wk =   0.0277778
        k(   22) = (   0.4124790   0.1767767  -0.1767767), wk =   0.0277778
        k(   23) = (  -0.2357023  -0.4714045   0.4714045), wk =   0.0277778
        k(   24) = (  -0.1767767  -0.4124790   0.4124790), wk =   0.0277778
        k(   25) = (  -0.1178511  -0.3535534   0.3535534), wk =   0.0277778
        k(   26) = (  -0.0589256  -0.2946278   0.2946278), wk =   0.0277778
        k(   27) = (   0.0000000  -0.2357023   0.2357023), wk =   0.0138889
        k(   28) = (   0.3535534   0.0000000   0.0000000), wk =   0.0069444
        k(   29) = (   0.4124790   0.0589256  -0.0589256), wk =   0.0277778
        k(   30) = (   0.4714045   0.1178511  -0.1178511), wk =   0.0277778
        k(   31) = (  -0.1767767  -0.5303301   0.5303301), wk =   0.0277778
        k(   32) = (  -0.1178511  -0.4714045   0.4714045), wk =   0.0277778
        k(   33) = (  -0.0589256  -0.4124790   0.4124790), wk =   0.0277778
        k(   34) = (   0.0000000  -0.3535534   0.3535534), wk =   0.0138889
        k(   35) = (   0.4714045   0.0000000   0.0000000), wk =   0.0069444
        k(   36) = (   0.5303301   0.0589256  -0.0589256), wk =   0.0277778
        k(   37) = (  -0.1178511  -0.5892557   0.5892557), wk =   0.0277778
        k(   38) = (  -0.0589256  -0.5303301   0.5303301), wk =   0.0277778
        k(   39) = (  -0.0000000  -0.4714045   0.4714045), wk =   0.0138889
        k(   40) = (   0.5892557   0.0000000   0.0000000), wk =   0.0069444
        k(   41) = (  -0.0589256  -0.6481812   0.6481812), wk =   0.0277778
        k(   42) = (   0.0000000  -0.5892557   0.5892557), wk =   0.0138889
        k(   43) = (  -0.7071068   0.0000000   0.0000000), wk =   0.0034722
        k(   44) = (   0.2357023   0.1178511  -0.0000000), wk =   0.0277778
        k(   45) = (   0.2946278   0.1767767  -0.0589256), wk =   0.0555556
        k(   46) = (   0.3535534   0.2357023  -0.1178511), wk =   0.0555556
        k(   47) = (  -0.2946278  -0.4124790   0.5303301), wk =   0.0555556
        k(   48) = (  -0.2357023  -0.3535534   0.4714045), wk =   0.0277778
        k(   49) = (   0.3535534   0.1178511   0.0000000), wk =   0.0277778
        k(   50) = (   0.4124790   0.1767767  -0.0589256), wk =   0.0555556
        k(   51) = (  -0.2357023  -0.4714045   0.5892557), wk =   0.0555556
        k(   52) = (  -0.1767767  -0.4124790   0.5303301), wk =   0.0555556
        k(   53) = (  -0.1178511  -0.3535534   0.4714045), wk =   0.0555556
        k(   54) = (  -0.0589256  -0.2946278   0.4124790), wk =   0.0555556
        k(   55) = (   0.0000000  -0.2357023   0.3535534), wk =   0.0277778
        k(   56) = (   0.4714045   0.1178511   0.0000000), wk =   0.0277778
        k(   57) = (  -0.1767767  -0.5303301   0.6481812), wk =   0.0555556
        k(   58) = (  -0.1178511  -0.4714045   0.5892557), wk =   0.0555556
        k(   59) = (  -0.0589256  -0.4124790   0.5303301), wk =   0.0555556
        k(   60) = (  -0.0000000  -0.3535534   0.4714045), wk =   0.0277778
        k(   61) = (  -0.1178511  -0.5892557   0.7071068), wk =   0.0277778
        k(   62) = (  -0.0589256  -0.5303301   0.6481812), wk =   0.0555556
        k(   63) = (  -0.0000000  -0.4714045   0.5892557), wk =   0.0277778
        k(   64) = (  -0.7071068   0.1178511   0.0000000), wk =   0.0138889
        k(   65) = (  -0.2357023  -0.4714045   0.7071068), wk =   0.0277778
        k(   66) = (  -0.1767767  -0.4124790   0.6481812), wk =   0.0555556
        k(   67) = (  -0.1178511  -0.3535534   0.5892557), wk =   0.0277778
        k(   68) = (  -0.1178511  -0.4714045   0.7071068), wk =   0.0277778
        k(   69) = (  -0.0589256  -0.4124790   0.6481812), wk =   0.0555556
        k(   70) = (   0.0000000  -0.3535534   0.5892557), wk =   0.0277778
        k(   71) = (  -0.7071068   0.2357023   0.0000000), wk =   0.0138889
        k(   72) = (  -0.7071068   0.3535534   0.0000000), wk =   0.0069444

     Dense  grid:    37117 G-vectors     FFT dimensions: (  48,  48,  48)

     Smooth grid:     9377 G-vectors     FFT dimensions: (  32,  32,  32)

     Estimated max dynamical RAM per process >      42.48 MB

     Estimated total dynamical RAM >     242.98 MB

     Initial potential from superposition of free atoms

     starting charge       7.9987, renormalised to       8.0000
     Starting wfcs are    8 randomized atomic wfcs

     total cpu time spent up to now is        0.7 secs

     Self-consistent Calculation

     iteration #  1     ecut=    40.00 Ry     beta= 0.07
     Davidson diagonalization with overlap
     ethr =  1.00E-02,  avg # of iterations =  4.1

     Threshold (ethr) on eigenvalues was too large:
     Diagonalizing with lowered threshold

     Davidson diagonalization with overlap
     ethr =  6.54E-04,  avg # of iterations =  1.4

     total cpu time spent up to now is        1.3 secs

     total energy              =     -19.20191408 Ry
     estimated scf accuracy    <       0.05466158 Ry

     iteration #  2     ecut=    40.00 Ry     beta= 0.07
     Davidson diagonalization with overlap
     ethr =  6.83E-04,  avg # of iterations =  1.0

     total cpu time spent up to now is        1.6 secs

     total energy              =     -19.19081250 Ry
     estimated scf accuracy    <       0.04552515 Ry

     iteration #  3     ecut=    40.00 Ry     beta= 0.07
     Davidson diagonalization with overlap
     ethr =  5.69E-04,  avg # of iterations =  1.0

     total cpu time spent up to now is        1.8 secs

     total energy              =     -19.19341020 Ry
     estimated scf accuracy    <       0.00061578 Ry

     iteration #  4     ecut=    40.00 Ry     beta= 0.07
     Davidson diagonalization with overlap
     ethr =  7.70E-06,  avg # of iterations =  4.1

     total cpu time spent up to now is        2.1 secs

     total energy              =     -19.19340278 Ry
     estimated scf accuracy    <       0.00045618 Ry

     iteration #  5     ecut=    40.00 Ry     beta= 0.07
     Davidson diagonalization with overlap
     ethr =  5.70E-06,  avg # of iterations =  1.1

     total cpu time spent up to now is        2.3 secs

     total energy              =     -19.19343793 Ry
     estimated scf accuracy    <       0.00002497 Ry

     iteration #  6     ecut=    40.00 Ry     beta= 0.07
     Davidson diagonalization with overlap
     ethr =  3.12E-07,  avg # of iterations =  2.5

     total cpu time spent up to now is        2.6 secs

     total energy              =     -19.19344320 Ry
     estimated scf accuracy    <       0.00000078 Ry

     iteration #  7     ecut=    40.00 Ry     beta= 0.07
     Davidson diagonalization with overlap
     ethr =  9.76E-09,  avg # of iterations =  3.7

     total cpu time spent up to now is        2.9 secs

     total energy              =     -19.19344408 Ry
     estimated scf accuracy    <       0.00000092 Ry

     iteration #  8     ecut=    40.00 Ry     beta= 0.07
     Davidson diagonalization with overlap
     ethr =  9.76E-09,  avg # of iterations =  2.0

     total cpu time spent up to now is        3.2 secs

     total energy              =     -19.19344435 Ry
     estimated scf accuracy    <       0.00000005 Ry

     iteration #  9     ecut=    40.00 Ry     beta= 0.07
     Davidson diagonalization with overlap
     ethr =  5.85E-10,  avg # of iterations =  2.0

     total cpu time spent up to now is        3.4 secs

     total energy              =     -19.19344450 Ry
     estimated scf accuracy    <       0.00000002 Ry

     iteration # 10     ecut=    40.00 Ry     beta= 0.07
     Davidson diagonalization with overlap
     ethr =  2.17E-10,  avg # of iterations =  1.6

     total cpu time spent up to now is        3.7 secs

     End of self-consistent calculation

          k = 0.0000 0.0000 0.0000 (  1211 PWs)   bands (ev):

    -5.8235   6.0246   6.0246   6.0246   8.5846   8.5846   8.5846   9.2010

          k = 0.0589 0.0589-0.0589 (  1209 PWs)   bands (ev):

    -5.7338   5.1663   5.8835   5.8835   8.5995   8.7924   8.7924   9.8963

          k = 0.1179 0.1179-0.1179 (  1173 PWs)   bands (ev):

    -5.4675   3.6567   5.5813   5.5813   8.3248   9.2230   9.2230  11.3361

          k = 0.1768 0.1768-0.1768 (  1179 PWs)   bands (ev):

    -5.0355   2.1283   5.2755   5.2755   7.9993   9.5214   9.5214  12.8081

          k = 0.2357 0.2357-0.2357 (  1167 PWs)   bands (ev):

    -4.4679   0.7397   5.0370   5.0370   7.7328   9.5334   9.5334  13.8273

          k = 0.2946 0.2946-0.2946 (  1176 PWs)   bands (ev):

    -3.8595  -0.3722   4.8897   4.8897   7.5643   9.4294   9.4294  13.8132

          k =-0.3536-0.3536 0.3536 (  1170 PWs)   bands (ev):

    -3.5339  -0.8673   4.8402   4.8402   7.5071   9.3778   9.3778  13.7359

          k = 0.1179 0.0000 0.0000 (  1199 PWs)   bands (ev):

    -5.7037   5.3181   5.6036   5.6036   8.3147   9.1529   9.1529   9.8569

          k = 0.1768 0.0589-0.0589 (  1181 PWs)   bands (ev):

    -5.4958   4.0997   5.2454   5.4262   8.3340   9.2002   9.6838  10.8165

          k = 0.2357 0.1179-0.1179 (  1182 PWs)   bands (ev):

    -5.1175   2.6162   4.9360   5.1058   8.4381   9.2033  10.0695  11.3971

          k = 0.2946 0.1768-0.1768 (  1172 PWs)   bands (ev):

    -4.5899   1.1989   4.7278   4.7565   8.2784   9.3112  10.1032  11.9731

          k = 0.3536 0.2357-0.2357 (  1176 PWs)   bands (ev):

    -3.9756  -0.0128   4.4640   4.6379   8.1081   9.2927   9.9188  13.0062

          k =-0.2946-0.4125 0.4125 (  1178 PWs)   bands (ev):

    -3.4962  -0.7678   4.2623   4.6671   8.0251   9.3000   9.7254  13.9073

          k =-0.2357-0.3536 0.3536 (  1173 PWs)   bands (ev):

    -3.6139  -0.5939   4.1695   4.8074   8.0495   9.4161   9.6158  14.0151

          k =-0.1768-0.2946 0.2946 (  1167 PWs)   bands (ev):

    -4.1835   0.3614   4.1984   5.0432   8.1805   9.5792   9.6194  13.4485

          k =-0.1179-0.2357 0.2357 (  1178 PWs)   bands (ev):

    -4.7811   1.6569   4.3584   5.3490   8.4055   9.4892   9.7598  12.4729

          k =-0.0589-0.1768 0.1768 (  1177 PWs)   bands (ev):

    -5.2624   3.0963   4.6614   5.6740   8.6894   9.1856   9.5349  11.6665

          k =-0.0000-0.1179 0.1179 (  1183 PWs)   bands (ev):

    -5.5850   4.4345   5.1786   5.9068   8.8314   8.9042   8.9793  10.7159

          k = 0.2357 0.0000 0.0000 (  1179 PWs)   bands (ev):

    -5.3462   3.9725   4.8531   4.8531   7.7397  10.2564  10.3378  10.3378

          k = 0.2946 0.0589-0.0589 (  1181 PWs)   bands (ev):

    -5.0238   2.9024   4.5055   4.5232   7.7586   9.8847  10.6841  10.8958

          k = 0.3536 0.1179-0.1179 (  1176 PWs)   bands (ev):

    -4.5431   1.6129   4.0564   4.3068   7.9960  10.0470  10.5356  11.0708

          k = 0.4125 0.1768-0.1768 (  1177 PWs)   bands (ev):

    -3.9455   0.3982   3.6221   4.2230   8.0407  10.2329  10.9026  11.0592

          k =-0.2357-0.4714 0.4714 (  1177 PWs)   bands (ev):

    -3.3742  -0.5185   3.2825   4.2749   8.0689  10.1005  10.6382  12.4055

          k =-0.1768-0.4125 0.4125 (  1167 PWs)   bands (ev):

    -3.2629  -0.6745   3.0730   4.4552   8.2061  10.0589  10.4152  13.9419

          k =-0.1179-0.3536 0.3536 (  1174 PWs)   bands (ev):

    -3.7510   0.0692   3.0201   4.7451   8.4593  10.1192  10.2467  13.2419

          k =-0.0589-0.2946 0.2946 (  1174 PWs)   bands (ev):

    -4.3643   1.1963   3.1674   5.1071   8.7767  10.0112  10.1777  12.0894

          k = 0.0000-0.2357 0.2357 (  1175 PWs)   bands (ev):

    -4.8879   2.3216   3.6551   5.4652   9.0176   9.5685   9.8470  11.6264

          k = 0.3536 0.0000 0.0000 (  1174 PWs)   bands (ev):

    -4.7569   2.5046   4.1661   4.1661   7.1749   9.1657  11.7312  11.7312

          k = 0.4125 0.0589-0.0589 (  1175 PWs)   bands (ev):

    -4.3268   1.6070   3.7076   3.9226   7.2582   8.8196  12.0070  12.2130

          k = 0.4714 0.1179-0.1179 (  1182 PWs)   bands (ev):

    -3.7606   0.5950   3.0848   3.8163   7.4780   9.2807  11.8660  12.1830

          k =-0.1768-0.5303 0.5303 (  1172 PWs)   bands (ev):

    -3.1483  -0.3136   2.5459   3.8537   7.5666  10.4656  11.6930  11.9156

          k =-0.1179-0.4714 0.4714 (  1168 PWs)   bands (ev):

    -2.8327  -0.7181   2.1891   4.0304   7.7417  11.4472  11.6226  12.1281

          k =-0.0589-0.4125 0.4125 (  1173 PWs)   bands (ev):

    -3.2005  -0.2349   2.0744   4.3300   8.0573  11.3190  11.4188  13.1287

          k = 0.0000-0.3536 0.3536 (  1171 PWs)   bands (ev):

    -3.8111   0.5745   2.3369   4.7155   8.4689  10.7845  11.1235  12.0881

          k = 0.4714 0.0000 0.0000 (  1174 PWs)   bands (ev):

    -3.9465   1.0278   3.6453   3.6453   6.7803   8.0461  13.2193  13.2193

          k = 0.5303 0.0589-0.0589 (  1175 PWs)   bands (ev):

    -3.4198   0.2521   3.1696   3.5043   6.9424   7.9137  13.5309  13.5933

          k =-0.1179-0.5893 0.5893 (  1169 PWs)   bands (ev):

    -2.8014  -0.5054   2.4569   3.5100   7.1187   8.7509  13.4174  13.4224

          k =-0.0589-0.5303 0.5303 (  1162 PWs)   bands (ev):

    -2.3435  -0.9866   1.8899   3.6611   7.2929  10.1807  13.0735  13.2509

          k =-0.0000-0.4714 0.4714 (  1152 PWs)   bands (ev):

    -2.6128  -0.7033   1.6917   3.9450   7.6129  11.8141  12.4493  13.0197

          k = 0.5893 0.0000 0.0000 (  1170 PWs)   bands (ev):

    -2.9320  -0.4038   3.3244   3.3244   6.6312   7.2377  14.7605  14.7605

          k =-0.0589-0.6482 0.6482 (  1172 PWs)   bands (ev):

    -2.3279  -1.0825   2.9032   3.2910   6.8331   7.3950  15.0081  15.0921

          k = 0.0000-0.5893 0.5893 (  1160 PWs)   bands (ev):

    -1.8827  -1.4791   2.2482   3.4062   6.9915   8.5772  14.4623  14.9516

          k =-0.7071 0.0000 0.0000 (  1162 PWs)   bands (ev):

    -1.7391  -1.7391   3.2162   3.2162   6.7726   6.7726  15.9946  15.9946

          k = 0.2357 0.1179-0.0000 (  1180 PWs)   bands (ev):

    -5.2309   3.3011   4.4208   5.3255   8.3624   9.5095  10.1524  10.9080

          k = 0.2946 0.1768-0.0589 (  1178 PWs)   bands (ev):

    -4.8010   2.0767   3.8925   5.0551   8.6341   9.4896  10.5593  10.9157

          k = 0.3536 0.2357-0.1179 (  1170 PWs)   bands (ev):

    -4.2351   0.7952   3.6222   4.7336   8.6600   9.4018  10.6201  11.5520

          k =-0.2946-0.4125 0.5303 (  1169 PWs)   bands (ev):

    -3.6253  -0.2761   3.4934   4.4921   8.5937   9.2351  10.5442  12.7471

          k =-0.2357-0.3536 0.4714 (  1178 PWs)   bands (ev):

    -3.2953  -0.7638   3.4571   4.4023   8.5674   9.1584  10.5006  14.0355

          k = 0.3536 0.1179 0.0000 (  1175 PWs)   bands (ev):

    -4.6482   2.1123   3.7353   4.4220   7.8241   9.5474  10.8046  11.6138

          k = 0.4125 0.1768-0.0589 (  1172 PWs)   bands (ev):

    -4.1239   1.0775   3.2033   4.1397   8.1546   9.7688  10.5476  11.9991

          k =-0.2357-0.4714 0.5893 (  1165 PWs)   bands (ev):

    -3.5094   0.0419   2.8480   3.9337   8.2763  10.2148  10.8054  11.9841

          k =-0.1768-0.4125 0.5303 (  1173 PWs)   bands (ev):

    -3.0237  -0.6495   2.6047   3.9159   8.4011   9.9427  11.8783  12.2611

          k =-0.1179-0.3536 0.4714 (  1168 PWs)   bands (ev):

    -3.1563  -0.4663   2.4900   4.0851   8.6431   9.7588  11.7900  12.6546

          k =-0.0589-0.2946 0.4125 (  1169 PWs)   bands (ev):

    -3.7347   0.3933   2.5673   4.3959   8.9895   9.6209  11.2811  11.7587

          k = 0.0000-0.2357 0.3536 (  1174 PWs)   bands (ev):

    -4.3272   1.3575   2.9797   4.7703   9.2270   9.3505  10.6883  11.3210

          k = 0.4714 0.1179 0.0000 (  1179 PWs)   bands (ev):

    -3.8497   0.8558   3.2328   3.6533   7.4346   8.5238  12.0310  13.1695

          k =-0.1768-0.5303 0.6482 (  1178 PWs)   bands (ev):

    -3.2539   0.0320   2.6556   3.4408   7.7687   9.0414  11.7361  13.5354

          k =-0.1179-0.4714 0.5893 (  1171 PWs)   bands (ev):

    -2.6763  -0.6695   2.1437   3.4483   7.9221  10.3215  11.4435  13.4647

          k =-0.0589-0.4125 0.5303 (  1169 PWs)   bands (ev):

    -2.6081  -0.7378   1.8610   3.6431   8.1738  11.0607  12.0388  12.6980

          k =-0.0000-0.3536 0.4714 (  1166 PWs)   bands (ev):

    -3.1354  -0.1569   1.9470   3.9820   8.5566  10.6460  11.4939  12.8179

          k =-0.1179-0.5893 0.7071 (  1174 PWs)   bands (ev):

    -2.8565  -0.4407   2.9533   3.1474   7.2698   7.7853  13.3958  14.7542

          k =-0.0589-0.5303 0.6482 (  1170 PWs)   bands (ev):

    -2.2385  -1.0751   2.3397   3.1039   7.5618   8.6742  13.0821  14.5367

          k =-0.0000-0.4714 0.5893 (  1171 PWs)   bands (ev):

    -2.0901  -1.1844   1.8524   3.2977   7.7954  10.1878  12.6265  13.0170

          k =-0.7071 0.1179 0.0000 (  1170 PWs)   bands (ev):

    -1.7026  -1.7026   2.9188   2.9188   7.3753   7.3753  14.8467  14.8467

          k =-0.2357-0.4714 0.7071 (  1173 PWs)   bands (ev):

    -3.5687   0.4069   2.5168   3.7695   8.8752   9.7499  10.2169  13.0287

          k =-0.1768-0.4125 0.6482 (  1170 PWs)   bands (ev):

    -2.9558  -0.3511   2.1741   3.4397   9.2517   9.7793  10.7493  13.4558

          k =-0.1179-0.3536 0.5893 (  1176 PWs)   bands (ev):

    -2.6034  -0.7709   2.0811   3.3130   9.3933   9.5544  12.0967  12.4833

          k =-0.1179-0.4714 0.7071 (  1180 PWs)   bands (ev):

    -2.6478  -0.5838   2.3225   2.9326   8.7102   9.1188  11.3639  14.2589

          k =-0.0589-0.4125 0.6482 (  1173 PWs)   bands (ev):

    -2.1349  -1.0828   2.0148   2.7810   9.0516  10.3098  11.0875  12.4682

          k = 0.0000-0.3536 0.5893 (  1176 PWs)   bands (ev):

    -2.3631  -0.8553   1.8922   3.0016   9.3507  10.4866  10.9889  12.2187

          k =-0.7071 0.2357 0.0000 (  1174 PWs)   bands (ev):

    -1.6246  -1.6246   2.4457   2.4457   8.7804   8.7804  12.7321  12.7321

          k =-0.7071 0.3536 0.0000 (  1176 PWs)   bands (ev):

    -1.5826  -1.5826   2.2433   2.2433  10.3012  10.3012  10.9735  10.9735

     the Fermi energy is     6.3172 ev

!    total energy              =     -19.19344523 Ry
     estimated scf accuracy    <          8.7E-09 Ry
     smearing contrib. (-TS)   =       0.00000092 Ry
     internal energy E=F+TS    =     -19.19344615 Ry

     The total energy is F=E-TS. E is the sum of the following terms:
     one-electron contribution =       4.98506608 Ry
     hartree contribution      =       1.12994156 Ry
     xc contribution           =      -8.60181194 Ry
     ewald contribution        =     -16.70664184 Ry

     convergence has been achieved in  10 iterations

     Forces acting on atoms (cartesian axes, Ry/au):

     atom    1 type  1   force =     0.00000000    0.00000000    0.00000000
     atom    2 type  1   force =     0.00000000   -0.00000000   -0.00000000

     Total force =     0.000000     Total SCF correction =     0.000000

     Writing all to output data dir ./data/scf.save/
 
     init_run     :      0.24s CPU      0.48s WALL (       1 calls)
     electrons    :      2.84s CPU      2.96s WALL (       1 calls)
     forces       :      0.06s CPU      0.06s WALL (       1 calls)

     Called by init_run:
     wfcinit      :      0.06s CPU      0.15s WALL (       1 calls)
     potinit      :      0.03s CPU      0.12s WALL (       1 calls)
     hinit0       :      0.12s CPU      0.18s WALL (       1 calls)

     Called by electrons:
     c_bands      :      1.88s CPU      1.92s WALL (      11 calls)
     sum_band     :      0.50s CPU      0.53s WALL (      11 calls)
     v_of_rho     :      0.32s CPU      0.40s WALL (      11 calls)
     newd         :      0.12s CPU      0.15s WALL (      11 calls)
     mix_rho      :      0.03s CPU      0.03s WALL (      11 calls)

     Called by c_bands:
     init_us_2    :      0.05s CPU      0.05s WALL (     264 calls)
     init_us_2:cp :      0.05s CPU      0.05s WALL (     264 calls)
     cegterg      :      1.37s CPU      1.39s WALL (     121 calls)

     Called by *egterg:
     cdiaghg      :      0.02s CPU      0.03s WALL (     358 calls)
     h_psi        :      1.26s CPU      1.28s WALL (     380 calls)
     s_psi        :      0.03s CPU      0.03s WALL (     380 calls)
     g_psi        :      0.01s CPU      0.01s WALL (     248 calls)

     Called by h_psi:
     h_psi:calbec :      0.03s CPU      0.04s WALL (     380 calls)
     vloc_psi     :      1.20s CPU      1.21s WALL (     380 calls)
     add_vuspsi   :      0.03s CPU      0.03s WALL (     380 calls)

     General routines
     calbec       :      0.05s CPU      0.05s WALL (     545 calls)
     fft          :      0.13s CPU      0.22s WALL (     153 calls)
     ffts         :      0.01s CPU      0.01s WALL (      22 calls)
     fftw         :      1.34s CPU      1.36s WALL (    5682 calls)
     interpolate  :      0.01s CPU      0.02s WALL (      11 calls)
 
     Parallel routines
 
     PWSCF        :      3.29s CPU      3.88s WALL

 
   This run was terminated on:  21:39:50  10Jun2026            

=------------------------------------------------------------------------------=
   JOB DONE.
=------------------------------------------------------------------------------=
