
     Program PWSCF v.7.1 starts on 11Jun2026 at  3:44:34 

     This program is part of the open-source Quantum ESPRESSO suite
     for quantum simulation of materials; please cite
         "P. Giannozzi et al., J. Phys.:Condens. Matter 21 395502 (2009);
         "P. Giannozzi et al., J. Phys.:Condens. Matter 29 465901 (2017);
         "P. Giannozzi et al., J. Chem. Phys. 152 154105 (2020);
          URL http://www.quantum-espresso.org", 
     in publications or presentations arising from this work. More details at
     http://www.quantum-espresso.org/quote

     Parallel version (MPI & OpenMP), running on       7 processor cores
     Number of MPI processes:                 7
     Threads/MPI process:                     1

     MPI processes distributed on     7 nodes
     223965 MiB available memory on the printing compute node when the environment starts
 
     Waiting for input...
     Reading input from standard input
Warning: card &CELL ignored
Warning: card / ignored
Warning: card &FCP ignored
Warning: card / ignored
Warning: card &RISM ignored
Warning: card / ignored

     Current dimensions of program PWSCF are:
     Max number of different atomic species (ntypx) = 10
     Max number of k-points (npk) =  40000
     Max angular momentum in pseudopotentials (lmaxx) =  4

     IMPORTANT: XC functional enforced from input :
     Exchange-correlation= VDW-DF2-B86R
                           (   1   4  26   0   2   0   0)
     Any further DFT definition will be discarded
     Please, verify this is what you really want

     Message from routine setup:
     using ibrav=0 with symmetry is DISCOURAGED, use correct ibrav instead
 
     R & G space division:  proc/nbgrp/npool/nimage =       7
     Subspace diagonalization in iterative solution of the eigenvalue problem:
     a serial algorithm will be used

 
     Parallelization info
     --------------------
     sticks:   dense  smooth     PW     G-vecs:    dense   smooth      PW
     Min          85      34     12                13719     3470     656
     Max          85      35     13                13743     3495     671
     Sum         595     241     85                96091    24369    4635
 
     Using Slab Decomposition
 


     bravais-lattice index     =            0
     lattice parameter (alat)  =       4.6633  a.u.
     unit-cell volume          =     711.7853 (a.u.)^3
     number of atoms/cell      =            4
     number of atomic types    =            1
     number of electrons       =        16.00
     number of Kohn-Sham states=           12
     kinetic-energy cutoff     =      40.0000  Ry
     charge density cutoff     =     400.0000  Ry
     scf convergence threshold =      1.0E-08
     mixing beta               =       0.3000
     number of iterations used =            8  plain     mixing
     Exchange-correlation= VDW-DF2-B86R
                           (   1   4  26   0   2   0   0)

     celldm(1)=   4.663315  celldm(2)=   0.000000  celldm(3)=   0.000000
     celldm(4)=   0.000000  celldm(5)=   0.000000  celldm(6)=   0.000000

     crystal axes: (cart. coord. in units of alat)
               a(1) = (   1.000000   0.000000   0.000000 )  
               a(2) = (  -0.500000   0.866025   0.000000 )  
               a(3) = (   0.000000   0.000000   8.104647 )  

     reciprocal axes: (cart. coord. in units 2 pi/alat)
               b(1) = (  1.000000  0.577350  0.000000 )  
               b(2) = (  0.000000  1.154701  0.000000 )  
               b(3) = (  0.000000  0.000000  0.123386 )  


     PseudoPot. # 1 for C  read from file:
     /home/k0750/k075000/PSPOT/c_pbe_v1.2.uspp.F.UPF
     MD5 check sum: d1aef80898a10debaa0f26306b886e00
     Pseudo is Ultrasoft + core correction, Zval =  4.0
     Generated by new atomic code, or converted to UPF format
     Using radial grid of  721 points,  4 beta functions with: 
                l(1) =   0
                l(2) =   0
                l(3) =   1
                l(4) =   1
     Q(r) pseudized with  8 coefficients,  rinner =    1.100   1.100   1.100


     atomic species   valence    mass     pseudopotential
        C              4.00    12.01100     C ( 1.00)

      8 Sym. Ops., with inversion, found ( 4 have fractional translation)



   Cartesian axes

     site n.     atom                  positions (alat units)
         1           C   tau(   1) = (   0.0000000   0.0000000   6.0784854  )
         2           C   tau(   2) = (   0.0000000   0.0000000   2.0261618  )
         3           C   tau(   3) = (  -0.0000050   0.5773532   6.0784854  )
         4           C   tau(   4) = (   0.5000050   0.2886722   2.0261618  )

     number of k points=   215  Marzari-Vanderbilt smearing, width (Ry)=  0.0100

     Number of k-points >= 100: set verbosity='high' to print them.

     Dense  grid:    96091 G-vectors     FFT dimensions: (  30,  30, 250)

     Smooth grid:    24369 G-vectors     FFT dimensions: (  20,  20, 160)

     Estimated max dynamical RAM per process >      36.89 MB

     Estimated total dynamical RAM >     258.26 MB

     Initial potential from superposition of free atoms

     starting charge      15.9998, renormalised to      16.0000

     negative rho (up, down):  1.452E-07 0.000E+00


     %%%%%%%%%%%%%%%%%%%%%%%%%%%%%%%%%%%%%%%%%%%%%%%%%%%%%%%%%%%%%%%%%%%%%%%%
     %                                                                      %
     % You are using vdW-DF, which was implemented by the Thonhauser group. %
     % Please cite the following two papers that made this development      %
     % possible and the two reviews that describe the various versions:     %
     %                                                                      %
     %   T. Thonhauser et al., PRL 115, 136402 (2015).                      %
     %   T. Thonhauser et al., PRB 76, 125112 (2007).                       %
     %   K. Berland et al., Rep. Prog. Phys. 78, 066501 (2015).             %
     %   D.C. Langreth et al., J. Phys.: Condens. Matter 21, 084203 (2009). %
     %                                                                      %
     % If you are calculating stress with vdW-DF, please also cite:         %
     %                                                                      %
     %   R. Sabatini et al., J. Phys.: Condens. Matter 24, 424209 (2012).   %
     %                                                                      %
     %%%%%%%%%%%%%%%%%%%%%%%%%%%%%%%%%%%%%%%%%%%%%%%%%%%%%%%%%%%%%%%%%%%%%%%%

     %%%%%%%%%%%%%%%%%%%%%%%%%%%%%%%%%%%%%%%%%%%%%%%%%%%%%%%%%%%%%%%%%%%%%%%%
     %                                                                      %
     %  vdW-DF NEWS:                                                        %
     %                                                                      %
     %  * vdW-DF3 is now available. DOI: 10.1021/acs.jctc.0c00471           %
     %    use with input_dft = 'vdW-DF3-opt1' or 'vdW-DF3-opt2'             %
     %                                                                      %
     %  * Unscreened and range-separated vdW-DF hybrid functionals          %
     %    DOI: 10.1063/1.4986522 and 10.1088/1361-648X/ac2ad2               %
     %    use with input_dft = 'vdW-DF-cx0' (etc) and 'vdW-DF-ahcx'         %
     %                                                                      %
     %%%%%%%%%%%%%%%%%%%%%%%%%%%%%%%%%%%%%%%%%%%%%%%%%%%%%%%%%%%%%%%%%%%%%%%%


     Starting wfcs are   16 randomized atomic wfcs

     total cpu time spent up to now is       14.3 secs

     Self-consistent Calculation

     iteration #  1     ecut=    40.00 Ry     beta= 0.30
     Davidson diagonalization with overlap
     ethr =  1.00E-02,  avg # of iterations =  2.5

     negative rho (up, down):  3.992E-06 0.000E+00

     total cpu time spent up to now is       16.9 secs

     total energy              =     -46.03339595 Ry
     estimated scf accuracy    <       0.38290673 Ry

     iteration #  2     ecut=    40.00 Ry     beta= 0.30
     Davidson diagonalization with overlap
     ethr =  2.39E-03,  avg # of iterations =  1.5

     negative rho (up, down):  8.728E-05 0.000E+00

     total cpu time spent up to now is       18.9 secs

     total energy              =     -45.95972740 Ry
     estimated scf accuracy    <       0.13943578 Ry

     iteration #  3     ecut=    40.00 Ry     beta= 0.30
     Davidson diagonalization with overlap
     ethr =  8.71E-04,  avg # of iterations =  4.0

     negative rho (up, down):  7.345E-05 0.000E+00

     total cpu time spent up to now is       21.7 secs

     total energy              =     -45.98853073 Ry
     estimated scf accuracy    <       0.00443502 Ry

     iteration #  4     ecut=    40.00 Ry     beta= 0.30
     Davidson diagonalization with overlap
     c_bands:  2 eigenvalues not converged
     c_bands:  2 eigenvalues not converged
     c_bands:  1 eigenvalues not converged
     c_bands:  1 eigenvalues not converged
     c_bands:  1 eigenvalues not converged
     c_bands:  1 eigenvalues not converged
     c_bands:  1 eigenvalues not converged
     c_bands:  2 eigenvalues not converged
     c_bands:  2 eigenvalues not converged
     c_bands:  1 eigenvalues not converged
     c_bands:  1 eigenvalues not converged
     c_bands:  1 eigenvalues not converged
     c_bands:  1 eigenvalues not converged
     ethr =  2.77E-05,  avg # of iterations =  8.8

     negative rho (up, down):  1.176E-04 0.000E+00

     total cpu time spent up to now is       25.3 secs

     total energy              =     -45.98357921 Ry
     estimated scf accuracy    <       0.01577741 Ry

     iteration #  5     ecut=    40.00 Ry     beta= 0.30
     Davidson diagonalization with overlap
     ethr =  2.77E-05,  avg # of iterations =  3.6

     negative rho (up, down):  1.174E-04 0.000E+00

     total cpu time spent up to now is       28.0 secs

     total energy              =     -45.98633456 Ry
     estimated scf accuracy    <       0.00001246 Ry

     iteration #  6     ecut=    40.00 Ry     beta= 0.30
     Davidson diagonalization with overlap
     c_bands:  1 eigenvalues not converged
     ethr =  7.78E-08,  avg # of iterations =  4.3

     negative rho (up, down):  1.216E-04 0.000E+00

     total cpu time spent up to now is       30.9 secs

     total energy              =     -45.98634353 Ry
     estimated scf accuracy    <       0.00000097 Ry

     iteration #  7     ecut=    40.00 Ry     beta= 0.30
     Davidson diagonalization with overlap
     ethr =  6.09E-09,  avg # of iterations =  2.2

     negative rho (up, down):  1.248E-04 0.000E+00

     total cpu time spent up to now is       33.2 secs

     total energy              =     -45.98634363 Ry
     estimated scf accuracy    <       0.00000147 Ry

     iteration #  8     ecut=    40.00 Ry     beta= 0.30
     Davidson diagonalization with overlap
     ethr =  6.09E-09,  avg # of iterations =  2.0

     negative rho (up, down):  1.277E-04 0.000E+00

     total cpu time spent up to now is       35.1 secs

     total energy              =     -45.98634372 Ry
     estimated scf accuracy    <       0.00000019 Ry

     iteration #  9     ecut=    40.00 Ry     beta= 0.30
     Davidson diagonalization with overlap
     ethr =  1.22E-09,  avg # of iterations =  2.0

     negative rho (up, down):  1.366E-04 0.000E+00

     total cpu time spent up to now is       37.0 secs

     End of self-consistent calculation

     Number of k-points >= 100: set verbosity='high' to print the bands.

     the Fermi energy is    -0.5565 ev

!    total energy              =     -45.98634372 Ry
     estimated scf accuracy    <          9.1E-09 Ry
     smearing contrib. (-TS)   =      -0.00018232 Ry
     internal energy E=F+TS    =     -45.98616139 Ry

     The total energy is F=E-TS. E is the sum of the following terms:
     one-electron contribution =    -180.83391195 Ry
     hartree contribution      =      93.88588395 Ry
     xc contribution           =     -14.54534092 Ry
     ewald contribution        =      55.50720752 Ry

     convergence has been achieved in   9 iterations

     negative rho (up, down):  1.366E-04 0.000E+00

     Forces acting on atoms (cartesian axes, Ry/au):

     atom    1 type  1   force =    -0.00002004    0.00001157    0.00000000
     atom    2 type  1   force =     0.00002004   -0.00001157    0.00000000
     atom    3 type  1   force =     0.00002015   -0.00001163    0.00000000
     atom    4 type  1   force =    -0.00002015    0.00001163    0.00000000

     Total force =     0.000046     Total SCF correction =     0.000000


     Computing stress (Cartesian axis) and pressure


     negative rho (up, down):  1.366E-04 0.000E+00
          total   stress  (Ry/bohr**3)                   (kbar)     P=       -3.57
  -0.00003153   0.00000000   0.00000000           -4.64        0.00        0.00
   0.00000000  -0.00003153   0.00000000            0.00       -4.64        0.00
   0.00000000   0.00000000  -0.00000984            0.00        0.00       -1.45


     Writing all to output data dir ./tmp/graphite_d_10p00000.save/
 
     init_run     :     13.92s CPU     14.19s WALL (       1 calls)
     electrons    :     21.57s CPU     22.78s WALL (       1 calls)
     forces       :      0.25s CPU      0.25s WALL (       1 calls)
     stress       :      0.62s CPU      0.69s WALL (       1 calls)

     Called by init_run:
     wfcinit      :      0.85s CPU      0.92s WALL (       1 calls)
     potinit      :     12.89s CPU     13.03s WALL (       1 calls)
     hinit0       :      0.06s CPU      0.09s WALL (       1 calls)

     Called by electrons:
     c_bands      :     17.63s CPU     18.26s WALL (       9 calls)
     sum_band     :      2.75s CPU      2.87s WALL (       9 calls)
     v_of_rho     :     13.97s CPU     14.55s WALL (      10 calls)
     newd         :      0.06s CPU      0.07s WALL (      10 calls)
     mix_rho      :      0.01s CPU      0.02s WALL (       9 calls)
     vdW_kernel   :     12.67s CPU     12.70s WALL (       1 calls)

     Called by c_bands:
     init_us_2    :      0.23s CPU      0.24s WALL (    4515 calls)
     init_us_2:cp :      0.22s CPU      0.23s WALL (    4515 calls)
     cegterg      :     16.78s CPU     17.18s WALL (    1935 calls)

     Called by *egterg:
     cdiaghg      :      1.08s CPU      1.15s WALL (    8604 calls)
     h_psi        :     14.15s CPU     14.51s WALL (    8819 calls)
     s_psi        :      0.31s CPU      0.31s WALL (    8819 calls)
     g_psi        :      0.07s CPU      0.07s WALL (    6669 calls)

     Called by h_psi:
     h_psi:calbec :      0.62s CPU      0.64s WALL (    8819 calls)
     vloc_psi     :     13.16s CPU     13.49s WALL (    8819 calls)
     add_vuspsi   :      0.32s CPU      0.32s WALL (    8819 calls)

     General routines
     calbec       :      0.90s CPU      0.92s WALL (   11829 calls)
     fft          :      1.22s CPU      1.85s WALL (     797 calls)
     ffts         :      0.01s CPU      0.01s WALL (      19 calls)
     fftw         :     14.43s CPU     14.79s WALL (  164496 calls)
     interpolate  :      0.01s CPU      0.01s WALL (      10 calls)
 
     Parallel routines
 
     PWSCF        :     37.08s CPU     39.28s WALL

 
   This run was terminated on:   3:45:13  11Jun2026            

=------------------------------------------------------------------------------=
   JOB DONE.
=------------------------------------------------------------------------------=
