
     Program PWSCF v.7.1 starts on 11Jun2026 at  3:37:34 

     This program is part of the open-source Quantum ESPRESSO suite
     for quantum simulation of materials; please cite
         "P. Giannozzi et al., J. Phys.:Condens. Matter 21 395502 (2009);
         "P. Giannozzi et al., J. Phys.:Condens. Matter 29 465901 (2017);
         "P. Giannozzi et al., J. Chem. Phys. 152 154105 (2020);
          URL http://www.quantum-espresso.org", 
     in publications or presentations arising from this work. More details at
     http://www.quantum-espresso.org/quote

     Parallel version (MPI & OpenMP), running on       7 processor cores
     Number of MPI processes:                 7
     Threads/MPI process:                     1

     MPI processes distributed on     7 nodes
     223206 MiB available memory on the printing compute node when the environment starts
 
     Waiting for input...
     Reading input from standard input
Warning: card &CELL ignored
Warning: card / ignored
Warning: card &FCP ignored
Warning: card / ignored
Warning: card &RISM ignored
Warning: card / ignored

     Current dimensions of program PWSCF are:
     Max number of different atomic species (ntypx) = 10
     Max number of k-points (npk) =  40000
     Max angular momentum in pseudopotentials (lmaxx) =  4
     Message from routine setup:
     using ibrav=0 with symmetry is DISCOURAGED, use correct ibrav instead
 
     R & G space division:  proc/nbgrp/npool/nimage =       7
     Subspace diagonalization in iterative solution of the eigenvalue problem:
     a serial algorithm will be used

 
     Parallelization info
     --------------------
     sticks:   dense  smooth     PW     G-vecs:    dense   smooth      PW
     Min          85      34     12                 7539     1908     364
     Max          85      35     13                 7551     1921     373
     Sum         595     241     85                52795    13391    2567
 
     Using Slab Decomposition
 


     bravais-lattice index     =            0
     lattice parameter (alat)  =       4.6633  a.u.
     unit-cell volume          =     391.4819 (a.u.)^3
     number of atoms/cell      =            4
     number of atomic types    =            1
     number of electrons       =        16.00
     number of Kohn-Sham states=           12
     kinetic-energy cutoff     =      40.0000  Ry
     charge density cutoff     =     400.0000  Ry
     scf convergence threshold =      1.0E-08
     mixing beta               =       0.3000
     number of iterations used =            8  plain     mixing
     Exchange-correlation= SLA  PW   PBE  PBE
                           (   1   4   3   4   0   0   0)

     celldm(1)=   4.663315  celldm(2)=   0.000000  celldm(3)=   0.000000
     celldm(4)=   0.000000  celldm(5)=   0.000000  celldm(6)=   0.000000

     crystal axes: (cart. coord. in units of alat)
               a(1) = (   1.000000   0.000000   0.000000 )  
               a(2) = (  -0.500000   0.866025   0.000000 )  
               a(3) = (   0.000000   0.000000   4.457556 )  

     reciprocal axes: (cart. coord. in units 2 pi/alat)
               b(1) = (  1.000000  0.577350  0.000000 )  
               b(2) = (  0.000000  1.154701  0.000000 )  
               b(3) = (  0.000000  0.000000  0.224338 )  


     PseudoPot. # 1 for C  read from file:
     /home/k0750/k075000/PSPOT/c_pbe_v1.2.uspp.F.UPF
     MD5 check sum: d1aef80898a10debaa0f26306b886e00
     Pseudo is Ultrasoft + core correction, Zval =  4.0
     Generated by new atomic code, or converted to UPF format
     Using radial grid of  721 points,  4 beta functions with: 
                l(1) =   0
                l(2) =   0
                l(3) =   1
                l(4) =   1
     Q(r) pseudized with  8 coefficients,  rinner =    1.100   1.100   1.100


     atomic species   valence    mass     pseudopotential
        C              4.00    12.01100     C ( 1.00)

      8 Sym. Ops., with inversion, found ( 4 have fractional translation)



   Cartesian axes

     site n.     atom                  positions (alat units)
         1           C   tau(   1) = (   0.0000000   0.0000000   3.3431670  )
         2           C   tau(   2) = (   0.0000000   0.0000000   1.1143890  )
         3           C   tau(   3) = (  -0.0000050   0.5773532   3.3431670  )
         4           C   tau(   4) = (   0.5000050   0.2886722   1.1143890  )

     number of k points=   215  Marzari-Vanderbilt smearing, width (Ry)=  0.0100

     Number of k-points >= 100: set verbosity='high' to print them.

     Dense  grid:    52795 G-vectors     FFT dimensions: (  30,  30, 144)

     Smooth grid:    13391 G-vectors     FFT dimensions: (  20,  20,  90)

     Estimated max dynamical RAM per process >      20.54 MB

     Estimated total dynamical RAM >     143.75 MB

     Initial potential from superposition of free atoms

     starting charge      15.9998, renormalised to      16.0000
     Starting wfcs are   16 randomized atomic wfcs

     total cpu time spent up to now is        0.8 secs

     Self-consistent Calculation

     iteration #  1     ecut=    40.00 Ry     beta= 0.30
     Davidson diagonalization with overlap
     ethr =  1.00E-02,  avg # of iterations =  2.7

     total cpu time spent up to now is        2.5 secs

     total energy              =     -46.01003674 Ry
     estimated scf accuracy    <       0.37960417 Ry

     iteration #  2     ecut=    40.00 Ry     beta= 0.30
     Davidson diagonalization with overlap
     ethr =  2.37E-03,  avg # of iterations =  1.9

     total cpu time spent up to now is        3.7 secs

     total energy              =     -45.93644248 Ry
     estimated scf accuracy    <       0.13808032 Ry

     iteration #  3     ecut=    40.00 Ry     beta= 0.30
     Davidson diagonalization with overlap
     ethr =  8.63E-04,  avg # of iterations =  3.7

     total cpu time spent up to now is        5.2 secs

     total energy              =     -45.96257097 Ry
     estimated scf accuracy    <       0.00354876 Ry

     iteration #  4     ecut=    40.00 Ry     beta= 0.30
     Davidson diagonalization with overlap
     c_bands:  1 eigenvalues not converged
     ethr =  2.22E-05,  avg # of iterations =  6.8

     total cpu time spent up to now is        7.3 secs

     total energy              =     -45.95944276 Ry
     estimated scf accuracy    <       0.01057072 Ry

     iteration #  5     ecut=    40.00 Ry     beta= 0.30
     Davidson diagonalization with overlap
     ethr =  2.22E-05,  avg # of iterations =  3.6

     total cpu time spent up to now is        9.0 secs

     total energy              =     -45.96116613 Ry
     estimated scf accuracy    <       0.00000592 Ry

     iteration #  6     ecut=    40.00 Ry     beta= 0.30
     Davidson diagonalization with overlap
     ethr =  3.70E-08,  avg # of iterations =  4.3

     total cpu time spent up to now is       10.7 secs

     total energy              =     -45.96117228 Ry
     estimated scf accuracy    <       0.00000148 Ry

     iteration #  7     ecut=    40.00 Ry     beta= 0.30
     Davidson diagonalization with overlap
     ethr =  9.25E-09,  avg # of iterations =  2.0

     total cpu time spent up to now is       11.9 secs

     total energy              =     -45.96117236 Ry
     estimated scf accuracy    <       0.00000083 Ry

     iteration #  8     ecut=    40.00 Ry     beta= 0.30
     Davidson diagonalization with overlap
     ethr =  5.18E-09,  avg # of iterations =  2.0

     total cpu time spent up to now is       13.1 secs

     total energy              =     -45.96117255 Ry
     estimated scf accuracy    <       0.00000008 Ry

     iteration #  9     ecut=    40.00 Ry     beta= 0.30
     Davidson diagonalization with overlap
     ethr =  5.07E-10,  avg # of iterations =  2.0

     total cpu time spent up to now is       14.4 secs

     End of self-consistent calculation

     Number of k-points >= 100: set verbosity='high' to print the bands.

     the Fermi energy is     2.6320 ev

!    total energy              =     -45.96117273 Ry
     estimated scf accuracy    <          3.1E-10 Ry
     smearing contrib. (-TS)   =      -0.00018134 Ry
     internal energy E=F+TS    =     -45.96099139 Ry

     The total energy is F=E-TS. E is the sum of the following terms:
     one-electron contribution =     -63.53929873 Ry
     hartree contribution      =      37.12133455 Ry
     xc contribution           =     -14.52592168 Ry
     ewald contribution        =      -5.01710553 Ry

     convergence has been achieved in   9 iterations

     Forces acting on atoms (cartesian axes, Ry/au):

     atom    1 type  1   force =    -0.00002019    0.00001166    0.00000000
     atom    2 type  1   force =     0.00002019   -0.00001166    0.00000000
     atom    3 type  1   force =     0.00002025   -0.00001169    0.00000000
     atom    4 type  1   force =    -0.00002025    0.00001169    0.00000000

     Total force =     0.000047     Total SCF correction =     0.000000


     Computing stress (Cartesian axis) and pressure

          total   stress  (Ry/bohr**3)                   (kbar)     P=       -4.72
  -0.00003955  -0.00000000   0.00000000           -5.82       -0.00        0.00
  -0.00000000  -0.00003955   0.00000000           -0.00       -5.82        0.00
   0.00000000   0.00000000  -0.00001724            0.00        0.00       -2.54


     Writing all to output data dir ./tmp/graphite_d_5p50000.save/
 
     init_run     :      0.66s CPU      0.74s WALL (       1 calls)
     electrons    :     12.96s CPU     13.66s WALL (       1 calls)
     forces       :      0.12s CPU      0.12s WALL (       1 calls)
     stress       :      0.25s CPU      0.26s WALL (       1 calls)

     Called by init_run:
     wfcinit      :      0.55s CPU      0.57s WALL (       1 calls)
     potinit      :      0.02s CPU      0.04s WALL (       1 calls)
     hinit0       :      0.04s CPU      0.08s WALL (       1 calls)

     Called by electrons:
     c_bands      :     11.13s CPU     11.71s WALL (       9 calls)
     sum_band     :      1.70s CPU      1.79s WALL (       9 calls)
     v_of_rho     :      0.07s CPU      0.10s WALL (      10 calls)
     newd         :      0.03s CPU      0.04s WALL (      10 calls)
     mix_rho      :      0.01s CPU      0.01s WALL (       9 calls)

     Called by c_bands:
     init_us_2    :      0.13s CPU      0.13s WALL (    4515 calls)
     init_us_2:cp :      0.12s CPU      0.13s WALL (    4515 calls)
     cegterg      :     10.62s CPU     10.98s WALL (    1935 calls)

     Called by *egterg:
     cdiaghg      :      1.02s CPU      1.05s WALL (    8179 calls)
     h_psi        :      8.60s CPU      8.91s WALL (    8394 calls)
     s_psi        :      0.16s CPU      0.17s WALL (    8394 calls)
     g_psi        :      0.04s CPU      0.04s WALL (    6244 calls)

     Called by h_psi:
     h_psi:calbec :      0.44s CPU      0.45s WALL (    8394 calls)
     vloc_psi     :      7.95s CPU      8.24s WALL (    8394 calls)
     add_vuspsi   :      0.17s CPU      0.18s WALL (    8394 calls)

     General routines
     calbec       :      0.64s CPU      0.66s WALL (   11404 calls)
     fft          :      0.08s CPU      0.15s WALL (     153 calls)
     ffts         :      0.00s CPU      0.01s WALL (      19 calls)
     fftw         :      8.75s CPU      9.06s WALL (  159852 calls)
     interpolate  :      0.01s CPU      0.01s WALL (      10 calls)
 
     Parallel routines
 
     PWSCF        :     14.72s CPU     15.96s WALL

 
   This run was terminated on:   3:37:50  11Jun2026            

=------------------------------------------------------------------------------=
   JOB DONE.
=------------------------------------------------------------------------------=
