
     Program PWSCF v.7.4.1 starts on  7Jul2025 at 14:19:30 

     This program is part of the open-source Quantum ESPRESSO suite
     for quantum simulation of materials; please cite
         "P. Giannozzi et al., J. Phys.:Condens. Matter 21 395502 (2009);
         "P. Giannozzi et al., J. Phys.:Condens. Matter 29 465901 (2017);
         "P. Giannozzi et al., J. Chem. Phys. 152 154105 (2020);
          URL http://www.quantum-espresso.org", 
     in publications or presentations arising from this work. More details at
     http://www.quantum-espresso.org/quote

     Parallel version (MPI & OpenMP), running on     100 processor cores
     Number of MPI processes:               100
     Threads/MPI process:                     1

     MPI processes distributed on     1 nodes
     3054814 MiB available memory on the printing compute node when the environment starts
 
     Waiting for input...
     Reading input from standard input

     Current dimensions of program PWSCF are:
     Max number of different atomic species (ntypx) = 10
     Max number of k-points (npk) =  40000
     Max angular momentum in pseudopotentials (lmaxx) =  4
     Message from routine setup:
     using ibrav=0 with symmetry is DISCOURAGED, use correct ibrav instead
 
     K-points division:     npool     =       2
     R & G space division:  proc/nbgrp/npool/nimage =      50
     Subspace diagonalization in iterative solution of the eigenvalue problem:
     a serial algorithm will be used

 
     Parallelization info
     --------------------
     sticks:   dense  smooth     PW     G-vecs:    dense   smooth      PW
     Min         149      71     17                10703     3557     441
     Max         150      72     18                10707     3564     448
     Sum        7455    3569    891               535233   177971   22259
 
     Using Slab Decomposition
 


     bravais-lattice index     =            0
     lattice parameter (alat)  =      13.2281  a.u.
     unit-cell volume          =    2834.3005 (a.u.)^3
     number of atoms/cell      =            1
     number of atomic types    =            1
     number of electrons       =         6.00
     number of Kohn-Sham states=            7
     kinetic-energy cutoff     =      60.0000  Ry
     charge density cutoff     =     500.0000  Ry
     scf convergence threshold =      1.0E-08
     mixing beta               =       0.7000
     number of iterations used =            8  plain     mixing
     energy convergence thresh.=      1.0E-04
     force convergence thresh. =      1.0E-03
     Exchange-correlation= SLA  PW   PBE  PBE
                           (   1   4   3   4   0   0   0)
     nstep                     =           50


     celldm(1)=  13.228083  celldm(2)=   0.000000  celldm(3)=   0.000000
     celldm(4)=   0.000000  celldm(5)=   0.000000  celldm(6)=   0.000000

     crystal axes: (cart. coord. in units of alat)
               a(1) = (   1.000000   0.000000   0.000000 )  
               a(2) = (   0.000000   1.071429   0.000000 )  
               a(3) = (   0.000000   0.000000   1.142857 )  

     reciprocal axes: (cart. coord. in units 2 pi/alat)
               b(1) = (  1.000000  0.000000  0.000000 )  
               b(2) = (  0.000000  0.933333  0.000000 )  
               b(3) = (  0.000000  0.000000  0.875000 )  


     PseudoPot. # 1 for O  read from file:
     /home/m0049/m004905/PSPOT/o_pbe_v1.2.uspp.F.UPF
     MD5 check sum: 734c27235a0248c51dbae37a1fbe46ec
     Pseudo is Ultrasoft + core correction, Zval =  6.0
     Generated by new atomic code, or converted to UPF format
     Using radial grid of  737 points,  5 beta functions with: 
                l(1) =   0
                l(2) =   0
                l(3) =   1
                l(4) =   1
                l(5) =   2
     Q(r) pseudized with  8 coefficients,  rinner =    0.900   0.900   0.900
                                                       0.900   0.900

     atomic species   valence    mass     pseudopotential
     O                 6.00    15.99900     O ( 1.00)

     Starting magnetic structure 
     atomic species   magnetization
     O               0.800

      8 Sym. Ops., with inversion, found



   Cartesian axes

     site n.     atom                  positions (alat units)
         1        O      tau(   1) = (   0.0000000   0.0000000   0.0000000  )

     number of k points=     1  Methfessel-Paxton smearing, width (Ry)=  0.0100
                       cart. coord. in units 2pi/alat
        k(    1) = (   0.0000000   0.0000000   0.0000000), wk =   1.0000000

     Dense  grid:   535233 G-vectors     FFT dimensions: (  96, 108, 108)

     Smooth grid:   177971 G-vectors     FFT dimensions: (  72,  72,  75)

     Estimated max dynamical RAM per process >      22.49 MB

     Estimated total dynamical RAM >       1.94 GB
     Generating pointlists ...
     new r_m :   0.4125 (alat units)  5.4566 (a.u.) for type    1

     Initial potential from superposition of free atoms

     starting charge       6.0000, renormalised to       6.0000

     negative rho (up, down):  5.848E-05 6.498E-06
     Starting wfcs are    4 randomized atomic wfcs +    3 random wfcs

     total cpu time spent up to now is       15.4 secs

     Self-consistent Calculation

     iteration #  1     ecut=    60.00 Ry     beta= 0.70
     Davidson diagonalization with overlap
     ethr =  1.00E-02,  avg # of iterations =  6.0

     negative rho (up, down):  3.111E-05 1.141E-07

     total cpu time spent up to now is       17.0 secs

     total energy              =     -31.87556524 Ry
     estimated scf accuracy    <       0.11436567 Ry

     total magnetization       =     2.00 Bohr mag/cell
     absolute magnetization    =     2.04 Bohr mag/cell

     iteration #  2     ecut=    60.00 Ry     beta= 0.70
     Davidson diagonalization with overlap
     ethr =  1.91E-03,  avg # of iterations =  1.5

     negative rho (up, down):  1.842E-04 1.909E-05

     total cpu time spent up to now is       17.5 secs

     total energy              =     -31.90730884 Ry
     estimated scf accuracy    <       0.01829763 Ry

     total magnetization       =     2.00 Bohr mag/cell
     absolute magnetization    =     2.01 Bohr mag/cell

     iteration #  3     ecut=    60.00 Ry     beta= 0.70
     Davidson diagonalization with overlap
     ethr =  3.05E-04,  avg # of iterations =  2.0

     negative rho (up, down):  1.179E-04 9.683E-05

     total cpu time spent up to now is       18.1 secs

     total energy              =     -31.90876807 Ry
     estimated scf accuracy    <       0.02921655 Ry

     total magnetization       =     2.00 Bohr mag/cell
     absolute magnetization    =     2.03 Bohr mag/cell

     iteration #  4     ecut=    60.00 Ry     beta= 0.70
     Davidson diagonalization with overlap
     ethr =  3.05E-04,  avg # of iterations =  1.0

     negative rho (up, down):  9.946E-05 6.565E-05

     total cpu time spent up to now is       18.2 secs

     total energy              =     -31.91291900 Ry
     estimated scf accuracy    <       0.00783536 Ry

     total magnetization       =     2.00 Bohr mag/cell
     absolute magnetization    =     2.00 Bohr mag/cell

     iteration #  5     ecut=    60.00 Ry     beta= 0.70
     Davidson diagonalization with overlap
     ethr =  1.31E-04,  avg # of iterations =  6.0

     negative rho (up, down):  9.003E-05 8.185E-05

     total cpu time spent up to now is       18.6 secs

     total energy              =     -31.91623361 Ry
     estimated scf accuracy    <       0.00418691 Ry

     total magnetization       =     2.00 Bohr mag/cell
     absolute magnetization    =     2.00 Bohr mag/cell

     iteration #  6     ecut=    60.00 Ry     beta= 0.70
     Davidson diagonalization with overlap
     ethr =  6.98E-05,  avg # of iterations =  2.0

     negative rho (up, down):  8.807E-05 8.081E-05

     total cpu time spent up to now is       18.7 secs

     total energy              =     -31.91681307 Ry
     estimated scf accuracy    <       0.00010069 Ry

     total magnetization       =     2.00 Bohr mag/cell
     absolute magnetization    =     2.00 Bohr mag/cell

     iteration #  7     ecut=    60.00 Ry     beta= 0.70
     Davidson diagonalization with overlap
     ethr =  1.68E-06,  avg # of iterations = 15.0

     negative rho (up, down):  8.858E-05 7.765E-05

     total cpu time spent up to now is       18.8 secs

     total energy              =     -31.91684746 Ry
     estimated scf accuracy    <       0.00001364 Ry

     total magnetization       =     2.00 Bohr mag/cell
     absolute magnetization    =     2.00 Bohr mag/cell

     iteration #  8     ecut=    60.00 Ry     beta= 0.70
     Davidson diagonalization with overlap
     ethr =  2.27E-07,  avg # of iterations =  1.5

     negative rho (up, down):  8.852E-05 7.819E-05

     total cpu time spent up to now is       18.9 secs

     total energy              =     -31.91684953 Ry
     estimated scf accuracy    <       0.00000035 Ry

     total magnetization       =     2.00 Bohr mag/cell
     absolute magnetization    =     2.00 Bohr mag/cell

     iteration #  9     ecut=    60.00 Ry     beta= 0.70
     Davidson diagonalization with overlap
     ethr =  5.87E-09,  avg # of iterations =  2.0

     negative rho (up, down):  8.855E-05 7.815E-05

     total cpu time spent up to now is       19.0 secs

     total energy              =     -31.91684960 Ry
     estimated scf accuracy    <       0.00000002 Ry

     total magnetization       =     2.00 Bohr mag/cell
     absolute magnetization    =     2.00 Bohr mag/cell

     iteration # 10     ecut=    60.00 Ry     beta= 0.70
     Davidson diagonalization with overlap
     ethr =  3.70E-10,  avg # of iterations =  1.0

     negative rho (up, down):  8.856E-05 7.814E-05
 
     Magnetic moment per site  (integrated on atomic sphere of radius R)
     atom   1 (R=0.413)  charge=  5.9990  magn=  2.0001

     total cpu time spent up to now is       19.1 secs

     End of self-consistent calculation

 ------ SPIN UP ------------


          k = 0.0000 0.0000 0.0000 ( 22259 PWs)   bands (ev):

   -24.9535 -10.7376  -9.6641  -9.6626  -0.6025   1.7468   1.8541

 ------ SPIN DOWN ----------


          k = 0.0000 0.0000 0.0000 ( 22259 PWs)   bands (ev):

   -21.4936  -7.0354  -7.0353  -6.1244  -0.4687   1.8721   1.9678

     the Fermi energy is    -7.0353 ev

!    total energy              =     -31.91684961 Ry
     estimated scf accuracy    <          3.1E-09 Ry
     smearing contrib. (-TS)   =      -0.00282095 Ry
     internal energy E=F+TS    =     -31.91402866 Ry

     The total energy is F=E-TS. E is the sum of the following terms:
     one-electron contribution =     -38.17153303 Ry
     hartree contribution      =      20.36825645 Ry
     xc contribution           =      -6.92598061 Ry
     ewald contribution        =      -7.18477147 Ry

     total magnetization       =     2.00 Bohr mag/cell
     absolute magnetization    =     2.00 Bohr mag/cell

     convergence has been achieved in  10 iterations

     negative rho (up, down):  8.856E-05 7.814E-05

     Forces acting on atoms (cartesian axes, Ry/au):

     atom    1 type  1   force =     0.00000000    0.00000000    0.00000000

     Total force =     0.000000     Total SCF correction =     0.000000


     Computing stress (Cartesian axis) and pressure


     negative rho (up, down):  8.856E-05 7.814E-05
          total   stress  (Ry/bohr**3)                   (kbar)     P=       -0.02
  -0.00000022   0.00000000   0.00000000           -0.03        0.00        0.00
   0.00000000  -0.00000010   0.00000000            0.00       -0.01        0.00
   0.00000000   0.00000000  -0.00000015            0.00        0.00       -0.02


     BFGS Geometry Optimization
     Energy error            =      0.0E+00 Ry
     Gradient error          =      0.0E+00 Ry/Bohr

     bfgs converged in   1 scf cycles and   0 bfgs steps
     (criteria: energy <  1.0E-04 Ry, force <  1.0E-03 Ry/Bohr)

     End of BFGS Geometry Optimization

     Final energy             =     -31.9168496058 Ry
Begin final coordinates

ATOMIC_POSITIONS (angstrom)
O                0.0000000000        0.0000000000        0.0000000000
End final coordinates



     Writing all to output data dir ./out/oxygen_sys.save/ :
     XML data file, charge density, pseudopotentials, collected wavefunctions
 
     init_run     :      0.27s CPU      6.84s WALL (       1 calls)
     electrons    :      0.87s CPU      4.28s WALL (       1 calls)
     forces       :      0.05s CPU      0.06s WALL (       1 calls)
     stress       :      0.10s CPU      0.10s WALL (       1 calls)

     Called by init_run:
     wfcinit      :      0.01s CPU      1.61s WALL (       1 calls)
     potinit      :      0.04s CPU      1.82s WALL (       1 calls)
     hinit0       :      0.02s CPU      2.95s WALL (       1 calls)

     Called by electrons:
     c_bands      :      0.08s CPU      2.24s WALL (      10 calls)
     sum_band     :      0.28s CPU      0.43s WALL (      10 calls)
     v_of_rho     :      0.30s CPU      0.86s WALL (      11 calls)
     newd         :      0.13s CPU      0.18s WALL (      11 calls)
     mix_rho      :      0.04s CPU      0.55s WALL (      10 calls)

     Called by c_bands:
     init_us_2    :      0.00s CPU      0.00s WALL (      22 calls)
     cegterg      :      0.08s CPU      2.23s WALL (      10 calls)

     Called by *egterg:
     cdiaghg      :      0.00s CPU      1.94s WALL (      50 calls)
     h_psi        :      0.07s CPU      0.57s WALL (      51 calls)
     s_psi        :      0.00s CPU      0.00s WALL (      51 calls)
     g_psi        :      0.00s CPU      0.00s WALL (      40 calls)

     Called by h_psi:
     h_psi:calbec :      0.00s CPU      0.45s WALL (      51 calls)
     vloc_psi     :      0.06s CPU      0.11s WALL (      51 calls)
                                        0.00s GPU  (      51 calls)
     add_vuspsi   :      0.00s CPU      0.00s WALL (      51 calls)

     General routines
     calbec       :      0.01s CPU      0.45s WALL (      78 calls)
     fft          :      0.19s CPU      2.19s WALL (     313 calls)
     ffts         :      0.02s CPU      1.25s WALL (      42 calls)
     fftw         :      0.06s CPU      0.12s WALL (     474 calls)
     interpolate  :      0.02s CPU      1.26s WALL (      22 calls)
 
     Parallel routines
 
     PWSCF        :      1.42s CPU     21.38s WALL

 
   This run was terminated on:  14:19:51   7Jul2025            

=------------------------------------------------------------------------------=
   JOB DONE.
=------------------------------------------------------------------------------=
