
     Program PWSCF v.7.4.1 starts on  7Jul2025 at 14:13:53 

     This program is part of the open-source Quantum ESPRESSO suite
     for quantum simulation of materials; please cite
         "P. Giannozzi et al., J. Phys.:Condens. Matter 21 395502 (2009);
         "P. Giannozzi et al., J. Phys.:Condens. Matter 29 465901 (2017);
         "P. Giannozzi et al., J. Chem. Phys. 152 154105 (2020);
          URL http://www.quantum-espresso.org", 
     in publications or presentations arising from this work. More details at
     http://www.quantum-espresso.org/quote

     Parallel version (MPI & OpenMP), running on     100 processor cores
     Number of MPI processes:               100
     Threads/MPI process:                     1

     MPI processes distributed on     1 nodes
     3054791 MiB available memory on the printing compute node when the environment starts
 
     Waiting for input...
     Reading input from standard input

     Current dimensions of program PWSCF are:
     Max number of different atomic species (ntypx) = 10
     Max number of k-points (npk) =  40000
     Max angular momentum in pseudopotentials (lmaxx) =  4
     Message from routine setup:
     using ibrav=0 with symmetry is DISCOURAGED, use correct ibrav instead
 
     K-points division:     npool     =       2
     R & G space division:  proc/nbgrp/npool/nimage =      50
     Subspace diagonalization in iterative solution of the eigenvalue problem:
     a serial algorithm will be used

 
     Parallelization info
     --------------------
     sticks:   dense  smooth     PW     G-vecs:    dense   smooth      PW
     Min         149      71     17                10703     3557     441
     Max         150      72     18                10707     3564     448
     Sum        7455    3569    891               535233   177971   22259
 
     Using Slab Decomposition
 


     bravais-lattice index     =            0
     lattice parameter (alat)  =      13.2281  a.u.
     unit-cell volume          =    2834.3005 (a.u.)^3
     number of atoms/cell      =            2
     number of atomic types    =            1
     number of electrons       =        12.00
     number of Kohn-Sham states=           10
     kinetic-energy cutoff     =      60.0000  Ry
     charge density cutoff     =     500.0000  Ry
     scf convergence threshold =      1.0E-08
     mixing beta               =       0.7000
     number of iterations used =            8  plain     mixing
     energy convergence thresh.=      1.0E-04
     force convergence thresh. =      1.0E-03
     Exchange-correlation= SLA  PW   PBE  PBE
                           (   1   4   3   4   0   0   0)
     nstep                     =           50


     celldm(1)=  13.228083  celldm(2)=   0.000000  celldm(3)=   0.000000
     celldm(4)=   0.000000  celldm(5)=   0.000000  celldm(6)=   0.000000

     crystal axes: (cart. coord. in units of alat)
               a(1) = (   1.000000   0.000000   0.000000 )  
               a(2) = (   0.000000   1.071429   0.000000 )  
               a(3) = (   0.000000   0.000000   1.142857 )  

     reciprocal axes: (cart. coord. in units 2 pi/alat)
               b(1) = (  1.000000  0.000000  0.000000 )  
               b(2) = (  0.000000  0.933333  0.000000 )  
               b(3) = (  0.000000  0.000000  0.875000 )  


     PseudoPot. # 1 for O  read from file:
     /home/m0049/m004905/PSPOT/o_pbe_v1.2.uspp.F.UPF
     MD5 check sum: 734c27235a0248c51dbae37a1fbe46ec
     Pseudo is Ultrasoft + core correction, Zval =  6.0
     Generated by new atomic code, or converted to UPF format
     Using radial grid of  737 points,  5 beta functions with: 
                l(1) =   0
                l(2) =   0
                l(3) =   1
                l(4) =   1
                l(5) =   2
     Q(r) pseudized with  8 coefficients,  rinner =    0.900   0.900   0.900
                                                       0.900   0.900

     atomic species   valence    mass     pseudopotential
     O                 6.00    15.99900     O ( 1.00)

     Starting magnetic structure 
     atomic species   magnetization
     O               0.800

      4 Sym. Ops. (no inversion) found



   Cartesian axes

     site n.     atom                  positions (alat units)
         1        O      tau(   1) = (   0.0000000   0.0000000   0.0000000  )
         2        O      tau(   2) = (   0.0000000   0.0000000   0.1728571  )

     number of k points=     1  Methfessel-Paxton smearing, width (Ry)=  0.0100
                       cart. coord. in units 2pi/alat
        k(    1) = (   0.0000000   0.0000000   0.0000000), wk =   1.0000000

     Dense  grid:   535233 G-vectors     FFT dimensions: (  96, 108, 108)

     Smooth grid:   177971 G-vectors     FFT dimensions: (  72,  72,  75)

     Estimated max dynamical RAM per process >      22.60 MB

     Estimated total dynamical RAM >       1.95 GB
     Generating pointlists ...
     new r_m :   0.0713 (alat units)  0.9432 (a.u.) for type    1

     Initial potential from superposition of free atoms

     starting charge      12.0000, renormalised to      12.0000

     negative rho (up, down):  5.760E-05 6.400E-06
     Starting wfcs are    8 randomized atomic wfcs +    2 random wfcs

     total cpu time spent up to now is       38.3 secs

     Self-consistent Calculation

     iteration #  1     ecut=    60.00 Ry     beta= 0.70
     Davidson diagonalization with overlap
     ethr =  1.00E-02,  avg # of iterations =  6.0

     negative rho (up, down):  1.032E-04 2.027E-05

     total cpu time spent up to now is       38.6 secs

     total energy              =     -64.19070995 Ry
     estimated scf accuracy    <       0.54946159 Ry

     total magnetization       =     2.00 Bohr mag/cell
     absolute magnetization    =     2.26 Bohr mag/cell

     iteration #  2     ecut=    60.00 Ry     beta= 0.70
     Davidson diagonalization with overlap
     ethr =  4.58E-03,  avg # of iterations =  1.0

     negative rho (up, down):  3.126E-04 7.042E-05

     total cpu time spent up to now is       38.9 secs

     total energy              =     -64.30291356 Ry
     estimated scf accuracy    <       0.06126897 Ry

     total magnetization       =     2.00 Bohr mag/cell
     absolute magnetization    =     2.09 Bohr mag/cell

     iteration #  3     ecut=    60.00 Ry     beta= 0.70
     Davidson diagonalization with overlap
     ethr =  5.11E-04,  avg # of iterations =  2.5

     negative rho (up, down):  2.185E-04 7.236E-05

     total cpu time spent up to now is       39.0 secs

     total energy              =     -64.30821067 Ry
     estimated scf accuracy    <       0.00073320 Ry

     total magnetization       =     2.00 Bohr mag/cell
     absolute magnetization    =     2.06 Bohr mag/cell

     iteration #  4     ecut=    60.00 Ry     beta= 0.70
     Davidson diagonalization with overlap
     ethr =  6.11E-06,  avg # of iterations = 12.5

     negative rho (up, down):  2.035E-04 7.935E-05

     total cpu time spent up to now is       39.2 secs

     total energy              =     -64.30864926 Ry
     estimated scf accuracy    <       0.00007812 Ry

     total magnetization       =     2.00 Bohr mag/cell
     absolute magnetization    =     2.05 Bohr mag/cell

     iteration #  5     ecut=    60.00 Ry     beta= 0.70
     Davidson diagonalization with overlap
     ethr =  6.51E-07,  avg # of iterations =  2.0

     negative rho (up, down):  1.982E-04 8.325E-05

     total cpu time spent up to now is       39.3 secs

     total energy              =     -64.30868824 Ry
     estimated scf accuracy    <       0.00000883 Ry

     total magnetization       =     2.00 Bohr mag/cell
     absolute magnetization    =     2.05 Bohr mag/cell

     iteration #  6     ecut=    60.00 Ry     beta= 0.70
     Davidson diagonalization with overlap
     ethr =  7.36E-08,  avg # of iterations =  2.5

     negative rho (up, down):  1.976E-04 8.393E-05

     total cpu time spent up to now is       39.4 secs

     total energy              =     -64.30869185 Ry
     estimated scf accuracy    <       0.00001559 Ry

     total magnetization       =     2.00 Bohr mag/cell
     absolute magnetization    =     2.05 Bohr mag/cell

     iteration #  7     ecut=    60.00 Ry     beta= 0.70
     Davidson diagonalization with overlap
     ethr =  7.36E-08,  avg # of iterations =  2.0

     negative rho (up, down):  1.976E-04 8.364E-05

     total cpu time spent up to now is       39.5 secs

     total energy              =     -64.30869415 Ry
     estimated scf accuracy    <       0.00000033 Ry

     total magnetization       =     2.00 Bohr mag/cell
     absolute magnetization    =     2.05 Bohr mag/cell

     iteration #  8     ecut=    60.00 Ry     beta= 0.70
     Davidson diagonalization with overlap
     ethr =  2.76E-09,  avg # of iterations =  2.0

     negative rho (up, down):  1.976E-04 8.372E-05

     total cpu time spent up to now is       39.6 secs

     total energy              =     -64.30869425 Ry
     estimated scf accuracy    <       0.00000006 Ry

     total magnetization       =     2.00 Bohr mag/cell
     absolute magnetization    =     2.05 Bohr mag/cell

     iteration #  9     ecut=    60.00 Ry     beta= 0.70
     Davidson diagonalization with overlap
     ethr =  4.70E-10,  avg # of iterations =  1.5

     negative rho (up, down):  1.976E-04 8.369E-05
 
     Magnetic moment per site  (integrated on atomic sphere of radius R)
     atom   1 (R=0.071)  charge=  2.9161  magn=  0.5663
     atom   2 (R=0.071)  charge=  2.9193  magn=  0.5665

     total cpu time spent up to now is       39.7 secs

     End of self-consistent calculation

 ------ SPIN UP ------------


          k = 0.0000 0.0000 0.0000 ( 22259 PWs)   bands (ev):

   -32.4201 -20.0745 -13.1274 -13.1027 -13.1025  -6.3930  -6.3926  -0.3768
     1.5522   1.9205

 ------ SPIN DOWN ----------


          k = 0.0000 0.0000 0.0000 ( 22259 PWs)   bands (ev):

   -31.2252 -18.2205 -12.1516 -11.1715 -11.1712  -3.9865  -3.9856  -0.2472
     1.8375   1.9688

     the Fermi energy is    -4.7885 ev

!    total energy              =     -64.30869425 Ry
     estimated scf accuracy    <          3.1E-09 Ry
     smearing contrib. (-TS)   =       0.00000000 Ry
     internal energy E=F+TS    =     -64.30869425 Ry

     The total energy is F=E-TS. E is the sum of the following terms:
     one-electron contribution =    -110.13484530 Ry
     hartree contribution      =      57.09689954 Ry
     xc contribution           =     -14.22551775 Ry
     ewald contribution        =       2.95476927 Ry

     total magnetization       =     2.00 Bohr mag/cell
     absolute magnetization    =     2.05 Bohr mag/cell

     convergence has been achieved in   9 iterations

     negative rho (up, down):  1.976E-04 8.369E-05

     Forces acting on atoms (cartesian axes, Ry/au):

     atom    1 type  1   force =     0.00000000    0.00000000   -0.03887217
     atom    2 type  1   force =     0.00000000    0.00000000    0.03887217

     Total force =     0.054974     Total SCF correction =     0.000238


     Computing stress (Cartesian axis) and pressure


     negative rho (up, down):  1.976E-04 8.369E-05
          total   stress  (Ry/bohr**3)                   (kbar)     P=        1.47
  -0.00000032   0.00000000   0.00000000           -0.05        0.00        0.00
   0.00000000  -0.00000044   0.00000000            0.00       -0.06        0.00
   0.00000000   0.00000000   0.00003074            0.00        0.00        4.52


     BFGS Geometry Optimization
     Energy error            =      3.0E-03 Ry
     Gradient error          =      3.9E-02 Ry/Bohr

     number of scf cycles    =   1
     number of bfgs steps    =   0

     energy             new  =     -64.3086942491 Ry

     new trust radius        =       0.0388721672 bohr
     new conv_thr            =       0.0000000100 Ry


ATOMIC_POSITIONS (angstrom)
O                0.0000000000        0.0000000000       -0.0205702650
O                0.0000000000        0.0000000000        1.2305702650



     Writing config-only to output data dir ./out/oxygen_sys.save/ :
     XML data file
     NEW-OLD atomic charge density approx. for the potential

     negative rho (up, down):  1.401E-04 3.342E-04
     Generating pointlists ...

     total cpu time spent up to now is       40.5 secs

     Self-consistent Calculation

     iteration #  1     ecut=    60.00 Ry     beta= 0.70
     Davidson diagonalization with overlap
     ethr =  1.00E-06,  avg # of iterations =  8.5

     negative rho (up, down):  4.445E-04 4.716E-04

     total cpu time spent up to now is       40.6 secs

     total energy              =     -64.30688330 Ry
     estimated scf accuracy    <       0.00147651 Ry

     total magnetization       =     2.00 Bohr mag/cell
     absolute magnetization    =     2.05 Bohr mag/cell

     iteration #  2     ecut=    60.00 Ry     beta= 0.70
     Davidson diagonalization with overlap
     ethr =  1.23E-05,  avg # of iterations =  2.5

     negative rho (up, down):  2.350E-04 1.737E-04

     total cpu time spent up to now is       40.7 secs

     total energy              =     -64.30726786 Ry
     estimated scf accuracy    <       0.00021682 Ry

     total magnetization       =     2.00 Bohr mag/cell
     absolute magnetization    =     2.05 Bohr mag/cell

     iteration #  3     ecut=    60.00 Ry     beta= 0.70
     Davidson diagonalization with overlap
     ethr =  1.81E-06,  avg # of iterations =  2.0

     negative rho (up, down):  1.989E-04 9.196E-05

     total cpu time spent up to now is       40.8 secs

     total energy              =     -64.30730953 Ry
     estimated scf accuracy    <       0.00000771 Ry

     total magnetization       =     2.00 Bohr mag/cell
     absolute magnetization    =     2.05 Bohr mag/cell

     iteration #  4     ecut=    60.00 Ry     beta= 0.70
     Davidson diagonalization with overlap
     ethr =  6.42E-08,  avg # of iterations =  2.0

     negative rho (up, down):  1.890E-04 7.759E-05

     total cpu time spent up to now is       40.8 secs

     total energy              =     -64.30731043 Ry
     estimated scf accuracy    <       0.00000381 Ry

     total magnetization       =     2.00 Bohr mag/cell
     absolute magnetization    =     2.05 Bohr mag/cell

     iteration #  5     ecut=    60.00 Ry     beta= 0.70
     Davidson diagonalization with overlap
     ethr =  3.18E-08,  avg # of iterations =  2.0

     negative rho (up, down):  1.876E-04 7.494E-05

     total cpu time spent up to now is       40.9 secs

     total energy              =     -64.30731117 Ry
     estimated scf accuracy    <       0.00000058 Ry

     total magnetization       =     2.00 Bohr mag/cell
     absolute magnetization    =     2.05 Bohr mag/cell

     iteration #  6     ecut=    60.00 Ry     beta= 0.70
     Davidson diagonalization with overlap
     ethr =  4.83E-09,  avg # of iterations =  2.0

     negative rho (up, down):  1.871E-04 7.440E-05

     total cpu time spent up to now is       41.0 secs

     total energy              =     -64.30731129 Ry
     estimated scf accuracy    <       0.00000004 Ry

     total magnetization       =     2.00 Bohr mag/cell
     absolute magnetization    =     2.05 Bohr mag/cell

     iteration #  7     ecut=    60.00 Ry     beta= 0.70
     Davidson diagonalization with overlap
     ethr =  2.99E-10,  avg # of iterations =  2.0

     negative rho (up, down):  1.870E-04 7.433E-05
 
     Magnetic moment per site  (integrated on atomic sphere of radius R)
     atom   1 (R=0.071)  charge=  2.8938  magn=  0.5676
     atom   2 (R=0.071)  charge=  2.8947  magn=  0.5676

     total cpu time spent up to now is       41.1 secs

     End of self-consistent calculation

 ------ SPIN UP ------------


          k = 0.0000 0.0000 0.0000 ( 22259 PWs)   bands (ev):

   -31.5947 -20.4003 -13.0154 -12.7536 -12.7533  -6.7172  -6.7169  -0.3753
     1.3454   1.9224

 ------ SPIN DOWN ----------


          k = 0.0000 0.0000 0.0000 ( 22259 PWs)   bands (ev):

   -30.3635 -18.5456 -12.0712 -10.8178 -10.8174  -4.3198  -4.3190  -0.2596
     1.7188   1.9610

     the Fermi energy is    -5.7477 ev

!    total energy              =     -64.30731130 Ry
     estimated scf accuracy    <          4.9E-09 Ry
     smearing contrib. (-TS)   =       0.00000000 Ry
     internal energy E=F+TS    =     -64.30731130 Ry

     The total energy is F=E-TS. E is the sum of the following terms:
     one-electron contribution =    -108.28471843 Ry
     hartree contribution      =      56.19792617 Ry
     xc contribution           =     -14.15485543 Ry
     ewald contribution        =       1.93433638 Ry

     total magnetization       =     2.00 Bohr mag/cell
     absolute magnetization    =     2.05 Bohr mag/cell

     convergence has been achieved in   7 iterations

     negative rho (up, down):  1.870E-04 7.433E-05

     Forces acting on atoms (cartesian axes, Ry/au):

     atom    1 type  1   force =     0.00000000    0.00000000    0.06907182
     atom    2 type  1   force =     0.00000000    0.00000000   -0.06907182

     Total force =     0.097682     Total SCF correction =     0.000178


     Computing stress (Cartesian axis) and pressure


     negative rho (up, down):  1.870E-04 7.433E-05
          total   stress  (Ry/bohr**3)                   (kbar)     P=       -2.91
  -0.00000043   0.00000000   0.00000000           -0.06        0.00        0.00
   0.00000000  -0.00000056   0.00000000            0.00       -0.08        0.00
   0.00000000   0.00000000  -0.00005826            0.00        0.00       -8.57

     Energy error            =      1.4E-03 Ry
     Gradient error          =      6.9E-02 Ry/Bohr

     number of scf cycles    =   2
     number of bfgs steps    =   1

     energy             old  =     -64.3086942491 Ry
     energy             new  =     -64.3073113008 Ry

     CASE: energy            _new > energy            _old

     new trust radius        =       0.0133341858 bohr
     new conv_thr            =       0.0000000100 Ry


ATOMIC_POSITIONS (angstrom)
O                0.0000000000        0.0000000000       -0.0070561472
O                0.0000000000        0.0000000000        1.2170561472



     Writing config-only to output data dir ./out/oxygen_sys.save/ :
     XML data file
     NEW-OLD atomic charge density approx. for the potential

     negative rho (up, down):  1.298E-04 1.010E-04
     Generating pointlists ...

     total cpu time spent up to now is       42.1 secs

     Self-consistent Calculation

     iteration #  1     ecut=    60.00 Ry     beta= 0.70
     Davidson diagonalization with overlap
     ethr =  1.00E-06,  avg # of iterations =  7.5

     negative rho (up, down):  1.853E-04 8.220E-05

     total cpu time spent up to now is       42.2 secs

     total energy              =     -64.30900247 Ry
     estimated scf accuracy    <       0.00062269 Ry

     total magnetization       =     2.00 Bohr mag/cell
     absolute magnetization    =     2.05 Bohr mag/cell

     iteration #  2     ecut=    60.00 Ry     beta= 0.70
     Davidson diagonalization with overlap
     ethr =  5.19E-06,  avg # of iterations =  2.0

     negative rho (up, down):  1.899E-04 7.963E-05

     total cpu time spent up to now is       42.3 secs

     total energy              =     -64.30916085 Ry
     estimated scf accuracy    <       0.00008800 Ry

     total magnetization       =     2.00 Bohr mag/cell
     absolute magnetization    =     2.05 Bohr mag/cell

     iteration #  3     ecut=    60.00 Ry     beta= 0.70
     Davidson diagonalization with overlap
     ethr =  7.33E-07,  avg # of iterations =  2.0

     negative rho (up, down):  1.921E-04 7.869E-05

     total cpu time spent up to now is       42.4 secs

     total energy              =     -64.30917754 Ry
     estimated scf accuracy    <       0.00000350 Ry

     total magnetization       =     2.00 Bohr mag/cell
     absolute magnetization    =     2.05 Bohr mag/cell

     iteration #  4     ecut=    60.00 Ry     beta= 0.70
     Davidson diagonalization with overlap
     ethr =  2.92E-08,  avg # of iterations =  2.0

     negative rho (up, down):  1.928E-04 7.906E-05

     total cpu time spent up to now is       42.4 secs

     total energy              =     -64.30917757 Ry
     estimated scf accuracy    <       0.00000374 Ry

     total magnetization       =     2.00 Bohr mag/cell
     absolute magnetization    =     2.05 Bohr mag/cell

     iteration #  5     ecut=    60.00 Ry     beta= 0.70
     Davidson diagonalization with overlap
     ethr =  2.92E-08,  avg # of iterations =  2.0

     negative rho (up, down):  1.931E-04 7.924E-05

     total cpu time spent up to now is       42.5 secs

     total energy              =     -64.30917823 Ry
     estimated scf accuracy    <       0.00000017 Ry

     total magnetization       =     2.00 Bohr mag/cell
     absolute magnetization    =     2.05 Bohr mag/cell

     iteration #  6     ecut=    60.00 Ry     beta= 0.70
     Davidson diagonalization with overlap
     ethr =  1.39E-09,  avg # of iterations =  2.0

     negative rho (up, down):  1.932E-04 7.933E-05
 
     Magnetic moment per site  (integrated on atomic sphere of radius R)
     atom   1 (R=0.071)  charge=  2.9076  magn=  0.5668
     atom   2 (R=0.071)  charge=  2.9106  magn=  0.5670

     total cpu time spent up to now is       42.6 secs

     End of self-consistent calculation

 ------ SPIN UP ------------


          k = 0.0000 0.0000 0.0000 ( 22259 PWs)   bands (ev):

   -32.1282 -20.1870 -13.0886 -12.9782 -12.9780  -6.5077  -6.5073  -0.3759
     1.5011   1.9211

 ------ SPIN DOWN ----------


          k = 0.0000 0.0000 0.0000 ( 22259 PWs)   bands (ev):

   -30.9207 -18.3325 -12.1235 -11.0454 -11.0451  -4.1041  -4.1033  -0.2514
     1.8054   1.9660

     the Fermi energy is    -5.8773 ev

!    total energy              =     -64.30917826 Ry
     estimated scf accuracy    <          9.9E-09 Ry
     smearing contrib. (-TS)   =       0.00000000 Ry
     internal energy E=F+TS    =     -64.30917826 Ry

     The total energy is F=E-TS. E is the sum of the following terms:
     one-electron contribution =    -109.48838667 Ry
     hartree contribution      =      56.78284881 Ry
     xc contribution           =     -14.20046458 Ry
     ewald contribution        =       2.59682418 Ry

     total magnetization       =     2.00 Bohr mag/cell
     absolute magnetization    =     2.05 Bohr mag/cell

     convergence has been achieved in   6 iterations

     negative rho (up, down):  1.932E-04 7.933E-05

     Forces acting on atoms (cartesian axes, Ry/au):

     atom    1 type  1   force =     0.00000000    0.00000000    0.00189365
     atom    2 type  1   force =     0.00000000    0.00000000   -0.00189365

     Total force =     0.002678     Total SCF correction =     0.000196


     Computing stress (Cartesian axis) and pressure


     negative rho (up, down):  1.932E-04 7.933E-05
          total   stress  (Ry/bohr**3)                   (kbar)     P=       -0.16
  -0.00000048   0.00000000   0.00000000           -0.07        0.00        0.00
   0.00000000  -0.00000061   0.00000000            0.00       -0.09        0.00
   0.00000000   0.00000000  -0.00000224            0.00        0.00       -0.33

     Energy error            =      4.8E-04 Ry
     Gradient error          =      1.9E-03 Ry/Bohr

     number of scf cycles    =   3
     number of bfgs steps    =   1

     energy             old  =     -64.3086942491 Ry
     energy             new  =     -64.3091782605 Ry

     CASE: energy            _new < energy            _old

     new trust radius        =       0.0006193974 bohr
     new conv_thr            =       0.0000000002 Ry


ATOMIC_POSITIONS (angstrom)
O                0.0000000000        0.0000000000       -0.0067283762
O                0.0000000000        0.0000000000        1.2167283762



     Writing config-only to output data dir ./out/oxygen_sys.save/ :
     XML data file
     NEW-OLD atomic charge density approx. for the potential

     negative rho (up, down):  1.187E-04 1.131E-04
     Generating pointlists ...

     total cpu time spent up to now is       45.6 secs

     Self-consistent Calculation

     iteration #  1     ecut=    60.00 Ry     beta= 0.70
     Davidson diagonalization with overlap
     ethr =  1.00E-06,  avg # of iterations =  2.0

     Threshold (ethr) on eigenvalues was too large:
     Diagonalizing with lowered threshold

     Davidson diagonalization with overlap
     ethr =  4.30E-09,  avg # of iterations =  1.5

     negative rho (up, down):  1.788E-04 8.365E-05

     total cpu time spent up to now is       45.7 secs

     total energy              =     -64.30917930 Ry
     estimated scf accuracy    <       0.00000052 Ry

     total magnetization       =     2.00 Bohr mag/cell
     absolute magnetization    =     2.05 Bohr mag/cell

     iteration #  2     ecut=    60.00 Ry     beta= 0.70
     Davidson diagonalization with overlap
     ethr =  4.31E-09,  avg # of iterations =  2.0

     negative rho (up, down):  1.864E-04 8.231E-05

     total cpu time spent up to now is       45.8 secs

     total energy              =     -64.30917935 Ry
     estimated scf accuracy    <       0.00000039 Ry

     total magnetization       =     2.00 Bohr mag/cell
     absolute magnetization    =     2.05 Bohr mag/cell

     iteration #  3     ecut=    60.00 Ry     beta= 0.70
     Davidson diagonalization with overlap
     ethr =  3.28E-09,  avg # of iterations =  2.0

     negative rho (up, down):  1.899E-04 8.120E-05

     total cpu time spent up to now is       45.9 secs

     total energy              =     -64.30917943 Ry
     estimated scf accuracy    <       0.00000019 Ry

     total magnetization       =     2.00 Bohr mag/cell
     absolute magnetization    =     2.05 Bohr mag/cell

     iteration #  4     ecut=    60.00 Ry     beta= 0.70
     Davidson diagonalization with overlap
     ethr =  1.57E-09,  avg # of iterations =  1.0

     negative rho (up, down):  1.932E-04 7.942E-05

     total cpu time spent up to now is       46.0 secs

     total energy              =     -64.30917946 Ry
     estimated scf accuracy    <          1.6E-09 Ry

     total magnetization       =     2.00 Bohr mag/cell
     absolute magnetization    =     2.05 Bohr mag/cell

     iteration #  5     ecut=    60.00 Ry     beta= 0.70
     Davidson diagonalization with overlap
     ethr =  1.37E-11,  avg # of iterations =  3.0

     negative rho (up, down):  1.933E-04 7.948E-05

     total cpu time spent up to now is       46.1 secs

     total energy              =     -64.30917946 Ry
     estimated scf accuracy    <          3.0E-10 Ry

     total magnetization       =     2.00 Bohr mag/cell
     absolute magnetization    =     2.05 Bohr mag/cell

     iteration #  6     ecut=    60.00 Ry     beta= 0.70
     Davidson diagonalization with overlap
     ethr =  2.53E-12,  avg # of iterations =  1.5

     negative rho (up, down):  1.934E-04 7.950E-05
 
     Magnetic moment per site  (integrated on atomic sphere of radius R)
     atom   1 (R=0.071)  charge=  2.9080  magn=  0.5668
     atom   2 (R=0.071)  charge=  2.9110  magn=  0.5670

     total cpu time spent up to now is       46.2 secs

     End of self-consistent calculation

 ------ SPIN UP ------------


          k = 0.0000 0.0000 0.0000 ( 22259 PWs)   bands (ev):

   -32.1420 -20.1821 -13.0906 -12.9843 -12.9840  -6.5028  -6.5025  -0.3759
     1.5037   1.9210

 ------ SPIN DOWN ----------


          k = 0.0000 0.0000 0.0000 ( 22259 PWs)   bands (ev):

   -30.9350 -18.3278 -12.1253 -11.0515 -11.0512  -4.0991  -4.0983  -0.2512
     1.8070   1.9661

     the Fermi energy is    -4.7297 ev

!    total energy              =     -64.30917946 Ry
     estimated scf accuracy    <          1.5E-11 Ry
     smearing contrib. (-TS)   =       0.00000000 Ry
     internal energy E=F+TS    =     -64.30917946 Ry

     The total energy is F=E-TS. E is the sum of the following terms:
     one-electron contribution =    -109.51840916 Ry
     hartree contribution      =      56.79763721 Ry
     xc contribution           =     -14.20167188 Ry
     ewald contribution        =       2.61326436 Ry

     total magnetization       =     2.00 Bohr mag/cell
     absolute magnetization    =     2.05 Bohr mag/cell

     convergence has been achieved in   6 iterations

     negative rho (up, down):  1.934E-04 7.950E-05

     Forces acting on atoms (cartesian axes, Ry/au):

     atom    1 type  1   force =     0.00000000    0.00000000    0.00005993
     atom    2 type  1   force =     0.00000000    0.00000000   -0.00005993

     Total force =     0.000085     Total SCF correction =     0.000004


     Computing stress (Cartesian axis) and pressure


     negative rho (up, down):  1.934E-04 7.950E-05
          total   stress  (Ry/bohr**3)                   (kbar)     P=       -0.07
  -0.00000035   0.00000000   0.00000000           -0.05        0.00        0.00
   0.00000000  -0.00000047   0.00000000            0.00       -0.07        0.00
   0.00000000   0.00000000  -0.00000068            0.00        0.00       -0.10

     Energy error            =      1.2E-06 Ry
     Gradient error          =      6.0E-05 Ry/Bohr

     bfgs converged in   4 scf cycles and   2 bfgs steps
     (criteria: energy <  1.0E-04 Ry, force <  1.0E-03 Ry/Bohr)

     End of BFGS Geometry Optimization

     Final energy             =     -64.3091794570 Ry

     File ./out/oxygen_sys.bfgs deleted, as requested
Begin final coordinates

ATOMIC_POSITIONS (angstrom)
O                0.0000000000        0.0000000000       -0.0067283762
O                0.0000000000        0.0000000000        1.2167283762
End final coordinates



     Writing all to output data dir ./out/oxygen_sys.save/ :
     XML data file, charge density, pseudopotentials, collected wavefunctions
 
     init_run     :      0.80s CPU     30.68s WALL (       1 calls)
     electrons    :      2.56s CPU      7.50s WALL (       4 calls)
     update_pot   :      0.10s CPU      0.10s WALL (       3 calls)
     forces       :      0.21s CPU      0.22s WALL (       4 calls)
     stress       :      0.40s CPU      0.52s WALL (       4 calls)

     Called by init_run:
     wfcinit      :      0.01s CPU      2.77s WALL (       1 calls)
     potinit      :      0.04s CPU      6.88s WALL (       1 calls)
     hinit0       :      0.02s CPU     17.07s WALL (       1 calls)

     Called by electrons:
     c_bands      :      0.29s CPU      0.55s WALL (      29 calls)
     sum_band     :      0.83s CPU      0.96s WALL (      29 calls)
     v_of_rho     :      0.87s CPU      4.16s WALL (      32 calls)
     newd         :      0.41s CPU      1.34s WALL (      32 calls)
     mix_rho      :      0.10s CPU      0.27s WALL (      29 calls)

     Called by c_bands:
     init_us_2    :      0.01s CPU      0.01s WALL (      63 calls)
     cegterg      :      0.27s CPU      0.51s WALL (      29 calls)

     Called by *egterg:
     cdiaghg      :      0.02s CPU      1.58s WALL (     112 calls)
     h_psi        :      0.23s CPU      1.62s WALL (     117 calls)
     s_psi        :      0.00s CPU      0.00s WALL (     117 calls)
     g_psi        :      0.00s CPU      0.00s WALL (      87 calls)

     Called by h_psi:
     h_psi:calbec :      0.01s CPU      0.65s WALL (     117 calls)
     vloc_psi     :      0.21s CPU      0.80s WALL (     117 calls)
                                        0.00s GPU  (     117 calls)
     add_vuspsi   :      0.00s CPU      0.16s WALL (     117 calls)

     General routines
     calbec       :      0.02s CPU      0.66s WALL (     214 calls)
     fft          :      0.56s CPU     16.58s WALL (     957 calls)
     ffts         :      0.04s CPU      3.57s WALL (     122 calls)
     fftw         :      0.23s CPU      0.82s WALL (    1900 calls)
     interpolate  :      0.06s CPU      3.59s WALL (      64 calls)
 
     Parallel routines
 
     PWSCF        :      4.25s CPU     52.05s WALL

 
   This run was terminated on:  14:14:45   7Jul2025            

=------------------------------------------------------------------------------=
   JOB DONE.
=------------------------------------------------------------------------------=
