
     Program PWSCF v.7.1 starts on  5Jun2026 at 15:20:49 

     This program is part of the open-source Quantum ESPRESSO suite
     for quantum simulation of materials; please cite
         "P. Giannozzi et al., J. Phys.:Condens. Matter 21 395502 (2009);
         "P. Giannozzi et al., J. Phys.:Condens. Matter 29 465901 (2017);
         "P. Giannozzi et al., J. Chem. Phys. 152 154105 (2020);
          URL http://www.quantum-espresso.org", 
     in publications or presentations arising from this work. More details at
     http://www.quantum-espresso.org/quote

     Parallel version (MPI & OpenMP), running on       7 processor cores
     Number of MPI processes:                 7
     Threads/MPI process:                     1

     MPI processes distributed on     7 nodes
     224611 MiB available memory on the printing compute node when the environment starts
 
     Waiting for input...
     Reading input from standard input

     Current dimensions of program PWSCF are:
     Max number of different atomic species (ntypx) = 10
     Max number of k-points (npk) =  40000
     Max angular momentum in pseudopotentials (lmaxx) =  4
     Message from routine volume:
     axis vectors are left-handed
     Message from routine setup:
     using ibrav=0 with symmetry is DISCOURAGED, use correct ibrav instead
 
     R & G space division:  proc/nbgrp/npool/nimage =       7
     Subspace diagonalization in iterative solution of the eigenvalue problem:
     a serial algorithm will be used

 
     Parallelization info
     --------------------
     sticks:   dense  smooth     PW     G-vecs:    dense   smooth      PW
     Min         316     126     41                 7408     1873     352
     Max         317     127     41                 7409     1875     353
     Sum        2213     887    287                51859    13117    2467
 
     Using Slab Decomposition
 


     bravais-lattice index     =            0
     lattice parameter (alat)  =      10.0307  a.u.
     unit-cell volume          =     274.6764 (a.u.)^3
     number of atoms/cell      =            4
     number of atomic types    =            3
     number of electrons       =        44.00
     number of Kohn-Sham states=           26
     kinetic-energy cutoff     =      50.0000  Ry
     charge density cutoff     =     500.0000  Ry
     scf convergence threshold =      1.0E-06
     mixing beta               =       0.7000
     number of iterations used =            8  plain     mixing
     Exchange-correlation=  SLA  PW   PBX  PBC
                           (   1   4   3   4   0   0   0)
     Hubbard projectors: ortho-atomic
     Hubbard parameters of DFT+U (Dudarev formulation) in eV:
     U(Fe1-3d) =  4.0000
     U(Fe2-3d) =  4.0000

     Internal variables: lda_plus_u = T, lda_plus_u_kind = 0

     celldm(1)=  10.030657  celldm(2)=   0.000000  celldm(3)=   0.000000
     celldm(4)=   0.000000  celldm(5)=   0.000000  celldm(6)=   0.000000

     crystal axes: (cart. coord. in units of alat)
               a(1) = (   0.408248   0.408248   0.816497 )  
               a(2) = (   0.408248   0.816497   0.408248 )  
               a(3) = (   0.816497   0.408248   0.408248 )  

     reciprocal axes: (cart. coord. in units 2 pi/alat)
               b(1) = ( -0.612372 -0.612372  1.837117 )  
               b(2) = ( -0.612372  1.837117 -0.612372 )  
               b(3) = (  1.837117 -0.612372 -0.612372 )  


     PseudoPot. # 1 for O  read from file:
     /home/k0750/k075000/PSPOT/o_pbe_v1.2.uspp.F.UPF
     MD5 check sum: 734c27235a0248c51dbae37a1fbe46ec
     Pseudo is Ultrasoft + core correction, Zval =  6.0
     Generated by new atomic code, or converted to UPF format
     Using radial grid of  737 points,  5 beta functions with: 
                l(1) =   0
                l(2) =   0
                l(3) =   1
                l(4) =   1
                l(5) =   2
     Q(r) pseudized with  8 coefficients,  rinner =    0.900   0.900   0.900
                                                       0.900   0.900

     PseudoPot. # 2 for Fe read from file:
     /home/k0750/k075000/PSPOT/fe_pbe_v1.5.uspp.F.UPF
     MD5 check sum: a130daea23fe5165f5d574ae7f82ed95
     Pseudo is Ultrasoft + core correction, Zval = 16.0
     Generated by new atomic code, or converted to UPF format
     Using radial grid of  861 points,  6 beta functions with: 
                l(1) =   0
                l(2) =   0
                l(3) =   1
                l(4) =   1
                l(5) =   2
                l(6) =   2
     Q(r) pseudized with  8 coefficients,  rinner =    1.000   1.000   1.000
                                                       1.000   1.000

     PseudoPot. # 3 for Fe read from file:
     /home/k0750/k075000/PSPOT/fe_pbe_v1.5.uspp.F.UPF
     MD5 check sum: a130daea23fe5165f5d574ae7f82ed95
     Pseudo is Ultrasoft + core correction, Zval = 16.0
     Generated by new atomic code, or converted to UPF format
     Using radial grid of  861 points,  6 beta functions with: 
                l(1) =   0
                l(2) =   0
                l(3) =   1
                l(4) =   1
                l(5) =   2
                l(6) =   2
     Q(r) pseudized with  8 coefficients,  rinner =    1.000   1.000   1.000
                                                       1.000   1.000

     atomic species   valence    mass     pseudopotential
        O              6.00    16.00000     O ( 1.00)
        Fe1           16.00    55.85000     Fe( 1.00)
        Fe2           16.00    55.85000     Fe( 1.00)

     Starting magnetic structure 
     atomic species   magnetization
        O            0.000
        Fe1          0.500
        Fe2         -0.500

     12 Sym. Ops., with inversion, found



   Cartesian axes

     site n.     atom                  positions (alat units)
         1           O   tau(   1) = (   0.4082483   0.4082483   0.4082483  )
         2           O   tau(   2) = (   1.2247449   1.2247449   1.2247449  )
         3           Fe1 tau(   3) = (   0.0000000   0.0000000   0.0000000  )
         4           Fe2 tau(   4) = (   0.8164966   0.8164966   0.8164966  )

     number of k points=    32  Methfessel-Paxton smearing, width (Ry)=  0.0200
                       cart. coord. in units 2pi/alat
        k(    1) = (   0.0000000   0.0000000   0.0000000), wk =   0.0046296
        k(    2) = (   0.3061862  -0.1020621  -0.1020621), wk =   0.0277778
        k(    3) = (   0.6123724  -0.2041241  -0.2041241), wk =   0.0277778
        k(    4) = (  -0.9185587   0.3061862   0.3061862), wk =   0.0138889
        k(    5) = (   0.2041241   0.2041241  -0.2041241), wk =   0.0277778
        k(    6) = (   0.5103104   0.1020621  -0.3061862), wk =   0.0555556
        k(    7) = (  -1.0206207   0.6123724   0.2041241), wk =   0.0555556
        k(    8) = (  -0.7144345   0.5103104   0.1020621), wk =   0.0555556
        k(    9) = (  -0.4082483   0.4082483  -0.0000000), wk =   0.0277778
        k(   10) = (   0.4082483   0.4082483  -0.4082483), wk =   0.0277778
        k(   11) = (  -1.1226828   0.9185587   0.1020621), wk =   0.0555556
        k(   12) = (  -0.8164966   0.8164966   0.0000000), wk =   0.0277778
        k(   13) = (  -0.6123724  -0.6123724   0.6123724), wk =   0.0138889
        k(   14) = (   0.1020621   0.1020621   0.1020621), wk =   0.0092593
        k(   15) = (   0.4082483   0.0000000   0.0000000), wk =   0.0277778
        k(   16) = (  -1.1226828   0.5103104   0.5103104), wk =   0.0277778
        k(   17) = (  -0.8164966   0.4082483   0.4082483), wk =   0.0277778
        k(   18) = (  -0.5103104   0.3061862   0.3061862), wk =   0.0277778
        k(   19) = (   0.3061862   0.3061862  -0.1020621), wk =   0.0277778
        k(   20) = (  -1.2247449   0.8164966   0.4082483), wk =   0.0555556
        k(   21) = (  -0.9185587   0.7144345   0.3061862), wk =   0.0555556
        k(   22) = (  -0.6123724   0.6123724   0.2041241), wk =   0.0555556
        k(   23) = (  -0.7144345  -0.7144345   0.9185587), wk =   0.0277778
        k(   24) = (  -0.4082483  -0.8164966   0.8164966), wk =   0.0555556
        k(   25) = (  -0.1020621  -0.9185587   0.7144345), wk =   0.0277778
        k(   26) = (  -0.5103104  -0.5103104   0.7144345), wk =   0.0277778
        k(   27) = (   0.2041241   0.2041241   0.2041241), wk =   0.0092593
        k(   28) = (  -1.3268069   0.7144345   0.7144345), wk =   0.0277778
        k(   29) = (  -1.0206207   0.6123724   0.6123724), wk =   0.0277778
        k(   30) = (  -0.8164966  -0.8164966   1.2247449), wk =   0.0277778
        k(   31) = (  -0.5103104  -0.9185587   1.1226828), wk =   0.0277778
        k(   32) = (  -0.3061862  -0.3061862  -0.3061862), wk =   0.0046296

     Dense  grid:    51859 G-vectors     FFT dimensions: (  72,  72,  72)

     Smooth grid:    13117 G-vectors     FFT dimensions: (  45,  45,  45)

     Estimated max dynamical RAM per process >      47.17 MB

     Estimated total dynamical RAM >     330.18 MB

     Check: negative core charge=   -0.000014
     Generating pointlists ...
     new r_m :   0.1684 (alat units)  1.6892 (a.u.) for type    1
     new r_m :   0.1684 (alat units)  1.6892 (a.u.) for type    2
     new r_m :   0.1684 (alat units)  1.6892 (a.u.) for type    3

     Initial potential from superposition of free atoms

     starting charge      42.0000, renormalised to      44.0000

     STARTING HUBBARD OCCUPATIONS:

     =================== HUBBARD OCCUPATIONS ===================
     ------------------------ ATOM    3 ------------------------
     Tr[ns(  3)] (up, down, total) =   5.00000  0.00000  5.00000
     Atomic magnetic moment for atom   3 =   5.00000
     SPIN  1
     eigenvalues:
       1.000  1.000  1.000  1.000  1.000
     eigenvectors (columns):
       1.000  0.000  0.000  0.000  0.000
       0.000  1.000  0.000  0.000  0.000
       0.000  0.000  1.000  0.000  0.000
       0.000  0.000  0.000  1.000  0.000
       0.000  0.000  0.000  0.000  1.000
     occupation matrix ns (before diag.):
       1.000  0.000  0.000  0.000  0.000
       0.000  1.000  0.000  0.000  0.000
       0.000  0.000  1.000  0.000  0.000
       0.000  0.000  0.000  1.000  0.000
       0.000  0.000  0.000  0.000  1.000
     SPIN  2
     eigenvalues:
       0.000  0.000  0.000  0.000  0.000
     eigenvectors (columns):
       1.000  0.000  0.000  0.000  0.000
       0.000  1.000  0.000  0.000  0.000
       0.000  0.000  1.000  0.000  0.000
       0.000  0.000  0.000  1.000  0.000
       0.000  0.000  0.000  0.000  1.000
     occupation matrix ns (before diag.):
       0.000  0.000  0.000  0.000  0.000
       0.000  0.000  0.000  0.000  0.000
       0.000  0.000  0.000  0.000  0.000
       0.000  0.000  0.000  0.000  0.000
       0.000  0.000  0.000  0.000  0.000
     ------------------------ ATOM    4 ------------------------
     Tr[ns(  4)] (up, down, total) =   0.00000  5.00000  5.00000
     Atomic magnetic moment for atom   4 =  -5.00000
     SPIN  1
     eigenvalues:
       0.000  0.000  0.000  0.000  0.000
     eigenvectors (columns):
       1.000  0.000  0.000  0.000  0.000
       0.000  1.000  0.000  0.000  0.000
       0.000  0.000  1.000  0.000  0.000
       0.000  0.000  0.000  1.000  0.000
       0.000  0.000  0.000  0.000  1.000
     occupation matrix ns (before diag.):
       0.000  0.000  0.000  0.000  0.000
       0.000  0.000  0.000  0.000  0.000
       0.000  0.000  0.000  0.000  0.000
       0.000  0.000  0.000  0.000  0.000
       0.000  0.000  0.000  0.000  0.000
     SPIN  2
     eigenvalues:
       1.000  1.000  1.000  1.000  1.000
     eigenvectors (columns):
       1.000  0.000  0.000  0.000  0.000
       0.000  1.000  0.000  0.000  0.000
       0.000  0.000  1.000  0.000  0.000
       0.000  0.000  0.000  1.000  0.000
       0.000  0.000  0.000  0.000  1.000
     occupation matrix ns (before diag.):
       1.000  0.000  0.000  0.000  0.000
       0.000  1.000  0.000  0.000  0.000
       0.000  0.000  1.000  0.000  0.000
       0.000  0.000  0.000  1.000  0.000
       0.000  0.000  0.000  0.000  1.000

     Number of occupied Hubbard levels =   10.0000

     Atomic wfc used for Hubbard projectors are orthogonalized

     Starting wfcs are   34 randomized atomic wfcs

     total cpu time spent up to now is        6.5 secs

     Self-consistent Calculation

     iteration #  1     ecut=    50.00 Ry     beta= 0.70
     Davidson diagonalization with overlap
     ethr =  1.00E-02,  avg # of iterations =  3.1

     =================== HUBBARD OCCUPATIONS ===================
     ------------------------ ATOM    3 ------------------------
     Tr[ns(  3)] (up, down, total) =   4.91218  0.28673  5.19891
     Atomic magnetic moment for atom   3 =   4.62545
     SPIN  1
     eigenvalues:
       0.977  0.977  0.977  0.990  0.990
     eigenvectors (columns):
      -0.000 -0.021 -0.005 -0.552 -0.833
       0.577 -0.564  0.590 -0.008  0.016
       0.577 -0.229 -0.784  0.018 -0.001
       0.000 -0.005  0.021  0.833 -0.552
      -0.577 -0.793 -0.194  0.010  0.015
     occupation matrix ns (before diag.):
       0.990 -0.000 -0.000  0.000 -0.000
      -0.000  0.977 -0.000 -0.000  0.000
      -0.000 -0.000  0.977  0.000  0.000
       0.000 -0.000  0.000  0.990 -0.000
      -0.000  0.000  0.000 -0.000  0.977
     SPIN  2
     eigenvalues:
       0.047  0.047  0.057  0.068  0.068
     eigenvectors (columns):
       0.460 -0.814 -0.000  0.332 -0.125
      -0.147 -0.249  0.577 -0.125  0.753
       0.289 -0.003  0.577 -0.590 -0.485
      -0.814 -0.460  0.000 -0.125 -0.332
       0.142 -0.252 -0.577 -0.715  0.269
     occupation matrix ns (before diag.):
       0.049 -0.003 -0.003  0.000 -0.006
      -0.003  0.063 -0.003 -0.005  0.003
      -0.003 -0.003  0.063  0.005  0.003
       0.000 -0.005  0.005  0.049 -0.000
      -0.006  0.003  0.003 -0.000  0.063
     ------------------------ ATOM    4 ------------------------
     Tr[ns(  4)] (up, down, total) =   0.28691  4.91215  5.19905
     Atomic magnetic moment for atom   4 =  -4.62524
     SPIN  1
     eigenvalues:
       0.047  0.047  0.057  0.068  0.068
     eigenvectors (columns):
       0.458 -0.816 -0.000  0.327 -0.134
      -0.147 -0.248  0.577 -0.102  0.757
       0.288 -0.004  0.577 -0.605 -0.467
      -0.816 -0.458  0.000 -0.134 -0.327
       0.141 -0.252 -0.577 -0.707  0.290
     occupation matrix ns (before diag.):
       0.049 -0.003 -0.003  0.000 -0.006
      -0.003  0.063 -0.003 -0.005  0.003
      -0.003 -0.003  0.063  0.005  0.003
       0.000 -0.005  0.005  0.049 -0.000
      -0.006  0.003  0.003 -0.000  0.063
     SPIN  2
     eigenvalues:
       0.977  0.977  0.977  0.990  0.990
     eigenvectors (columns):
      -0.000 -0.020 -0.005 -0.505 -0.863
       0.577 -0.574  0.581 -0.008  0.015
       0.577 -0.216 -0.787  0.017 -0.000
       0.000 -0.005  0.020  0.863 -0.505
      -0.577 -0.790 -0.207  0.009  0.015
     occupation matrix ns (before diag.):
       0.990 -0.000 -0.000  0.000 -0.000
      -0.000  0.977 -0.000 -0.000  0.000
      -0.000 -0.000  0.977  0.000  0.000
       0.000 -0.000  0.000  0.990 -0.000
      -0.000  0.000  0.000 -0.000  0.977

     Number of occupied Hubbard levels =   10.3980

     WARNING!!! Modifying starting ns matrices according to input values

     =================== HUBBARD OCCUPATIONS ===================
     ------------------------ ATOM    3 ------------------------
     Tr[ns(  3)] (up, down, total) =   4.91218  1.23018  6.14236
     Atomic magnetic moment for atom   3 =   3.68199
     SPIN  1
     eigenvalues:
       0.977  0.977  0.977  0.990  0.990
     eigenvectors (columns):
      -0.000 -0.021 -0.005 -0.571 -0.821
       0.577 -0.571  0.583 -0.008  0.016
       0.577 -0.219 -0.786  0.018 -0.002
       0.000 -0.005  0.021  0.821 -0.571
      -0.577 -0.791 -0.203  0.010  0.015
     occupation matrix ns (before diag.):
       0.990 -0.000 -0.000  0.000 -0.000
      -0.000  0.977 -0.000 -0.000  0.000
      -0.000 -0.000  0.977  0.000  0.000
       0.000 -0.000  0.000  0.990 -0.000
      -0.000  0.000  0.000 -0.000  0.977
     SPIN  2
     eigenvalues:
       0.047  0.047  0.068  0.068  1.000
     eigenvectors (columns):
      -0.216 -0.910 -0.346 -0.076  0.000
       0.210 -0.199  0.232  0.728 -0.577
      -0.277 -0.083  0.514 -0.564 -0.577
       0.910 -0.216  0.076 -0.346 -0.000
      -0.067 -0.281  0.746  0.163  0.577
     occupation matrix ns (before diag.):
       0.049 -0.003 -0.003  0.000 -0.006
      -0.003  0.377  0.311 -0.005 -0.311
      -0.003  0.311  0.377  0.005 -0.311
       0.000 -0.005  0.005  0.049 -0.000
      -0.006 -0.311 -0.311 -0.000  0.377
     ------------------------ ATOM    4 ------------------------
     Tr[ns(  4)] (up, down, total) =   1.23021  4.91215  6.14236
     Atomic magnetic moment for atom   4 =  -3.68194
     SPIN  1
     eigenvalues:
       0.047  0.047  0.068  0.068  1.000
     eigenvectors (columns):
       0.705  0.615  0.322  0.145  0.000
      -0.055  0.283 -0.077 -0.760 -0.577
       0.273 -0.094 -0.620  0.446 -0.577
      -0.615  0.705 -0.145  0.322 -0.000
       0.217  0.189 -0.696 -0.314  0.577
     occupation matrix ns (before diag.):
       0.049 -0.003 -0.003  0.000 -0.006
      -0.003  0.377  0.311 -0.005 -0.311
      -0.003  0.311  0.377  0.005 -0.311
       0.000 -0.005  0.005  0.049 -0.000
      -0.006 -0.311 -0.311 -0.000  0.377
     SPIN  2
     eigenvalues:
       0.977  0.977  0.977  0.990  0.990
     eigenvectors (columns):
      -0.000 -0.021 -0.004 -0.452 -0.892
       0.577 -0.531  0.620 -0.009  0.014
       0.577 -0.272 -0.770  0.017  0.001
      -0.000 -0.004  0.021  0.892 -0.452
      -0.577 -0.803 -0.150  0.008  0.015
     occupation matrix ns (before diag.):
       0.990 -0.000 -0.000  0.000 -0.000
      -0.000  0.977 -0.000 -0.000  0.000
      -0.000 -0.000  0.977  0.000  0.000
       0.000 -0.000  0.000  0.990 -0.000
      -0.000  0.000  0.000 -0.000  0.977

     Number of occupied Hubbard levels =   12.2847

     total cpu time spent up to now is        8.8 secs

     total energy              =    -563.74667959 Ry
     estimated scf accuracy    <       2.75269183 Ry

     total magnetization       =     0.00 Bohr mag/cell
     absolute magnetization    =     9.75 Bohr mag/cell

     iteration #  2     ecut=    50.00 Ry     beta= 0.70
     Davidson diagonalization with overlap
     ethr =  6.26E-03,  avg # of iterations =  5.6

     total cpu time spent up to now is       11.6 secs

     total energy              =    -560.97580630 Ry
     estimated scf accuracy    <      34.74271943 Ry

     total magnetization       =    -0.00 Bohr mag/cell
     absolute magnetization    =     1.33 Bohr mag/cell

     iteration #  3     ecut=    50.00 Ry     beta= 0.70
     Davidson diagonalization with overlap
     ethr =  6.26E-03,  avg # of iterations =  2.3

     total cpu time spent up to now is       13.7 secs

     WARNING: integrated charge=    44.00007699, expected=    44.00000000

     total energy              =    -565.05392645 Ry
     estimated scf accuracy    <       0.22760458 Ry

     total magnetization       =     0.00 Bohr mag/cell
     absolute magnetization    =     7.67 Bohr mag/cell

     iteration #  4     ecut=    50.00 Ry     beta= 0.70
     Davidson diagonalization with overlap
     ethr =  5.17E-04,  avg # of iterations =  2.0

     total cpu time spent up to now is       15.4 secs

     WARNING: integrated charge=    44.00002172, expected=    44.00000000

     total energy              =    -565.07989333 Ry
     estimated scf accuracy    <       0.03624768 Ry

     total magnetization       =    -0.00 Bohr mag/cell
     absolute magnetization    =     7.56 Bohr mag/cell

     iteration #  5     ecut=    50.00 Ry     beta= 0.70
     Davidson diagonalization with overlap
     ethr =  8.24E-05,  avg # of iterations =  3.3

     total cpu time spent up to now is       17.5 secs

     WARNING: integrated charge=    44.00000705, expected=    44.00000000

     total energy              =    -565.08427258 Ry
     estimated scf accuracy    <       0.00703564 Ry

     total magnetization       =    -0.00 Bohr mag/cell
     absolute magnetization    =     7.54 Bohr mag/cell

     iteration #  6     ecut=    50.00 Ry     beta= 0.70
     Davidson diagonalization with overlap
     ethr =  1.60E-05,  avg # of iterations =  2.3

     total cpu time spent up to now is       19.4 secs

     total energy              =    -565.08509449 Ry
     estimated scf accuracy    <       0.00055595 Ry

     total magnetization       =     0.00 Bohr mag/cell
     absolute magnetization    =     7.51 Bohr mag/cell

     iteration #  7     ecut=    50.00 Ry     beta= 0.70
     Davidson diagonalization with overlap
     ethr =  1.26E-06,  avg # of iterations =  3.0

     total cpu time spent up to now is       21.2 secs

     total energy              =    -565.08514642 Ry
     estimated scf accuracy    <       0.00008455 Ry

     total magnetization       =    -0.00 Bohr mag/cell
     absolute magnetization    =     7.51 Bohr mag/cell

     iteration #  8     ecut=    50.00 Ry     beta= 0.70
     Davidson diagonalization with overlap
     ethr =  1.92E-07,  avg # of iterations =  2.2

     total cpu time spent up to now is       23.0 secs

     total energy              =    -565.08515696 Ry
     estimated scf accuracy    <       0.00001402 Ry

     total magnetization       =     0.00 Bohr mag/cell
     absolute magnetization    =     7.51 Bohr mag/cell

     iteration #  9     ecut=    50.00 Ry     beta= 0.70
     Davidson diagonalization with overlap
     ethr =  3.19E-08,  avg # of iterations =  2.4

     total cpu time spent up to now is       24.8 secs

     total energy              =    -565.08515857 Ry
     estimated scf accuracy    <       0.00000191 Ry

     total magnetization       =    -0.00 Bohr mag/cell
     absolute magnetization    =     7.51 Bohr mag/cell

     iteration # 10     ecut=    50.00 Ry     beta= 0.70
     Davidson diagonalization with overlap
     ethr =  4.33E-09,  avg # of iterations =  2.2
 
     Magnetic moment per site  (integrated on atomic sphere of radius R)
     atom   1 (R=0.168)  charge=  5.8808  magn=  0.0000
     atom   2 (R=0.168)  charge=  5.8808  magn=  0.0000
     atom   3 (R=0.168)  charge= 13.5685  magn=  3.4578
     atom   4 (R=0.168)  charge= 13.5684  magn= -3.4578

     total cpu time spent up to now is       26.5 secs

     End of self-consistent calculation

     =================== HUBBARD OCCUPATIONS ===================
     ------------------------ ATOM    3 ------------------------
     Tr[ns(  3)] (up, down, total) =   4.93499  1.22104  6.15603
     Atomic magnetic moment for atom   3 =   3.71394
     SPIN  1
     eigenvalues:
       0.980  0.988  0.988  0.990  0.990
     eigenvectors (columns):
      -0.000 -0.217 -0.010  0.420  0.881
      -0.577  0.368  0.707 -0.100  0.146
      -0.577  0.429 -0.672  0.176  0.014
       0.000  0.010 -0.217 -0.881  0.420
       0.577  0.796  0.035  0.076  0.160
     occupation matrix ns (before diag.):
       0.990  0.000  0.000  0.000  0.000
       0.000  0.985 -0.003  0.000  0.003
       0.000 -0.003  0.985 -0.000  0.003
       0.000  0.000 -0.000  0.990 -0.000
       0.000  0.003  0.003 -0.000  0.985
     SPIN  2
     eigenvalues:
       0.031  0.031  0.102  0.102  0.954
     eigenvectors (columns):
      -0.098 -0.039 -0.463  0.880  0.000
       0.114  0.804  0.046  0.073 -0.577
       0.639 -0.501 -0.086  0.003 -0.577
       0.039 -0.098  0.880  0.463 -0.000
       0.753  0.303 -0.040  0.076  0.577
     occupation matrix ns (before diag.):
       0.101  0.003  0.003  0.000  0.006
       0.003  0.339  0.307  0.005 -0.307
       0.003  0.307  0.339 -0.005 -0.307
       0.000  0.005 -0.005  0.101 -0.000
       0.006 -0.307 -0.307 -0.000  0.339
     ------------------------ ATOM    4 ------------------------
     Tr[ns(  4)] (up, down, total) =   1.22098  4.93497  6.15595
     Atomic magnetic moment for atom   4 =  -3.71399
     SPIN  1
     eigenvalues:
       0.031  0.031  0.102  0.102  0.954
     eigenvectors (columns):
      -0.100 -0.033  0.440  0.892  0.000
       0.165  0.795 -0.048  0.072 -0.577
       0.606 -0.541  0.086  0.006 -0.577
       0.033 -0.100 -0.892  0.440 -0.000
       0.771  0.254  0.038  0.077  0.577
     occupation matrix ns (before diag.):
       0.101  0.003  0.003  0.000  0.006
       0.003  0.339  0.307  0.005 -0.307
       0.003  0.307  0.339 -0.005 -0.307
       0.000  0.005 -0.005  0.101 -0.000
       0.006 -0.307 -0.307 -0.000  0.339
     SPIN  2
     eigenvalues:
       0.980  0.988  0.988  0.990  0.990
     eigenvectors (columns):
      -0.000 -0.216 -0.016  0.488  0.846
      -0.577  0.347  0.718 -0.089  0.153
      -0.577  0.448 -0.659  0.177  0.000
       0.000  0.016 -0.216 -0.846  0.488
       0.577  0.795  0.058  0.088  0.153
     occupation matrix ns (before diag.):
       0.990  0.000  0.000  0.000  0.000
       0.000  0.985 -0.003  0.000  0.003
       0.000 -0.003  0.985 -0.000  0.003
       0.000  0.000 -0.000  0.990 -0.000
       0.000  0.003  0.003 -0.000  0.985

     Number of occupied Hubbard levels =   12.3120

 ------ SPIN UP ------------


          k = 0.0000 0.0000 0.0000 (  1701 PWs)   bands (ev):

   -75.6486 -71.1957 -42.2199 -42.2199 -40.6031 -37.5449 -37.5449 -36.9613
    -6.0604  -4.8691   5.6231   7.0375   7.0375   8.6731   8.6731  10.0719
    10.7485  10.7895  10.7895  11.3846  11.3846  12.7476  14.5673  16.2179
    16.2179  17.5477

          k = 0.3062-0.1021-0.1021 (  1659 PWs)   bands (ev):

   -75.6476 -71.1946 -42.2291 -42.2222 -40.6015 -37.5569 -37.5478 -36.9595
    -5.8222  -4.8567   6.0587   6.9807   7.2238   8.2507   8.4762   9.4496
     9.9138  10.5393  10.5732  11.5508  11.6439  12.7346  15.9158  16.1147
    16.3313  17.3331

          k = 0.6124-0.2041-0.2041 (  1636 PWs)   bands (ev):

   -75.6458 -71.1925 -42.2474 -42.2267 -40.5984 -37.5808 -37.5537 -36.9558
    -5.3016  -4.8270   6.4585   6.9345   7.4933   7.5044   8.3951   8.5370
     9.3589   9.9928  10.6517  11.3964  11.8344  12.6847  16.0063  16.5654
    16.8629  17.6970

          k =-0.9186 0.3062 0.3062 (  1636 PWs)   bands (ev):

   -75.6450 -71.1914 -42.2565 -42.2290 -40.5968 -37.5926 -37.5566 -36.9540
    -4.9639  -4.8625   6.2593   6.9135   7.1672   7.4869   8.5648   8.7336
     9.3220   9.4905  10.3513  11.5749  11.9622  12.6051  16.0187  16.6802
    17.3109  17.7646

          k = 0.2041 0.2041-0.2041 (  1646 PWs)   bands (ev):

   -75.6476 -71.1946 -42.2291 -42.2222 -40.6015 -37.5569 -37.5478 -36.9595
    -5.7982  -4.8871   6.1520   6.9396   7.2531   8.2405   8.4863   9.5647
     9.7056  10.2723  10.4173  11.8254  11.8779  12.7181  15.8590  16.3230
    16.3256  17.2200

          k = 0.5103 0.1021-0.3062 (  1646 PWs)   bands (ev):

   -75.6462 -71.1930 -42.2411 -42.2274 -40.5992 -37.5725 -37.5544 -36.9567
    -5.4078  -4.8695   6.5248   7.0776   7.2354   7.7948   8.0978   8.9421
     9.2408  10.2630  10.5904  11.3649  11.8047  12.7668  15.9819  16.4516
    16.9890  17.5324

          k =-1.0206 0.6124 0.2041 (  1636 PWs)   bands (ev):

   -75.6449 -71.1915 -42.2518 -42.2337 -40.5969 -37.5865 -37.5627 -36.9540
    -5.0001  -4.8279   6.5311   6.6733   7.2506   7.7361   8.2314   8.4826
     9.1217  10.0845  10.4202  11.4014  11.6047  12.7617  16.0708  16.5616
    17.4304  17.6579

          k =-0.7144 0.5103 0.1021 (  1633 PWs)   bands (ev):

   -75.6449 -71.1915 -42.2518 -42.2337 -40.5969 -37.5865 -37.5627 -36.9539
    -5.0055  -4.8247   6.4864   6.8522   7.3000   7.6620   8.2371   8.2905
     9.1717  10.0888  10.4236  11.2884  11.7548  12.7312  16.1029  16.5274
    17.4219  17.7469

          k =-0.4082 0.4082-0.0000 (  1643 PWs)   bands (ev):

   -75.6462 -71.1930 -42.2411 -42.2274 -40.5992 -37.5726 -37.5544 -36.9567
    -5.4477  -4.8261   6.7531   6.8945   7.1786   7.7911   8.0716   8.9658
     9.1416  10.5057  10.5651  11.2026  11.9075  12.7298  16.0349  16.4412
    17.0664  17.5011

          k = 0.4082 0.4082-0.4082 (  1639 PWs)   bands (ev):

   -75.6458 -71.1925 -42.2474 -42.2268 -40.5985 -37.5807 -37.5536 -36.9558
    -5.2171  -4.9176   6.3072   6.9404   7.5411   7.5448   8.3628   8.6798
     9.3401   9.8880  10.3595  11.8720  11.9408  12.7527  15.9113  16.5536
    17.5346  17.7202

          k =-1.1227 0.9186 0.1021 (  1629 PWs)   bands (ev):

   -75.6448 -71.1915 -42.2518 -42.2337 -40.5969 -37.5865 -37.5627 -36.9539
    -4.9481  -4.8788   6.0614   7.0338   7.4063   7.5924   8.0795   8.6780
     9.4113   9.7163  10.4274  11.6239  11.6988  12.8163  16.0627  16.4843
    17.6563  17.7688

          k =-0.8165 0.8165 0.0000 (  1630 PWs)   bands (ev):

   -75.6444 -71.1909 -42.2457 -42.2456 -40.5961 -37.5783 -37.5783 -36.9530
    -4.8365  -4.8363   6.5700   7.0462   7.1222   7.4330   7.6836   8.4655
     9.5883   9.7710  10.3925  11.3450  11.6980  12.7782  16.3075  16.3361
    17.5838  17.7709

          k =-0.6124-0.6124 0.6124 (  1622 PWs)   bands (ev):

   -75.6449 -71.1915 -42.2565 -42.2290 -40.5970 -37.5925 -37.5566 -36.9538
    -4.9310  -4.8890   5.5860   7.1869   7.4010   7.4601   8.6731   8.7293
     9.6017   9.6187  10.2898  11.6496  11.7759  12.8211  16.0762  16.7323
    17.8276  17.9351

          k = 0.1021 0.1021 0.1021 (  1665 PWs)   bands (ev):

   -75.6486 -71.1957 -42.2199 -42.2199 -40.6031 -37.5449 -37.5449 -36.9614
    -5.9908  -4.9617   5.8527   7.0631   7.0631   8.6833   8.6833   9.6745
    10.4786  10.4786  10.6319  11.6953  11.6953  12.6907  15.0774  16.2081
    16.2081  17.4908

          k = 0.4082 0.0000 0.0000 (  1640 PWs)   bands (ev):

   -75.6476 -71.1946 -42.2291 -42.2222 -40.6015 -37.5569 -37.5478 -36.9596
    -5.7290  -4.9701   6.1969   7.1279   7.2421   8.1554   8.4577   9.2732
     9.6704  10.6452  10.9430  11.2410  11.4448  12.7618  15.9563  16.2331
    16.3317  17.6278

          k =-1.1227 0.5103 0.5103 (  1649 PWs)   bands (ev):

   -75.6458 -71.1925 -42.2474 -42.2267 -40.5984 -37.5807 -37.5537 -36.9559
    -5.2521  -4.8761   6.1734   6.9089   7.4784   7.8359   8.4048   8.6470
     9.4273  10.1056  10.7814  10.9769  11.6623  12.7670  15.9864  16.5958
    16.7821  17.7706

          k =-0.8165 0.4082 0.4082 (  1632 PWs)   bands (ev):

   -75.6449 -71.1914 -42.2565 -42.2290 -40.5969 -37.5926 -37.5566 -36.9540
    -4.9576  -4.8671   6.0257   6.9310   7.3827   7.4800   8.5473   8.7324
     9.3951   9.5215  10.3412  11.5748  11.9164  12.6668  16.0343  16.6944
    17.3684  17.8059

          k =-0.5103 0.3062 0.3062 (  1644 PWs)   bands (ev):

   -75.6458 -71.1925 -42.2474 -42.2268 -40.5984 -37.5807 -37.5537 -36.9558
    -5.2892  -4.8427   6.5705   7.0596   7.1811   7.5248   8.3739   8.5949
     9.3132   9.8923  10.4834  11.7924  11.9666  12.6695  15.9501  16.5417
    17.2064  17.6731

          k = 0.3062 0.3062-0.1021 (  1646 PWs)   bands (ev):

   -75.6476 -71.1946 -42.2291 -42.2222 -40.6015 -37.5569 -37.5478 -36.9596
    -5.6618  -5.0502   6.4181   7.0122   7.3039   8.2481   8.4759   8.9989
     9.6347  10.0816  10.6394  11.6635  12.0592  12.7159  15.9344  16.3214
    16.6872  17.3426

          k =-1.2247 0.8165 0.4082 (  1642 PWs)   bands (ev):

   -75.6462 -71.1930 -42.2411 -42.2274 -40.5992 -37.5725 -37.5544 -36.9568
    -5.2978  -4.9864   6.3387   7.0464   7.4254   7.7994   8.2759   8.9388
     9.3726   9.8434  10.7185  11.2981  11.8122  12.8235  15.8967  16.4673
    16.9489  17.5554

          k =-0.9186 0.7144 0.3062 (  1631 PWs)   bands (ev):

   -75.6449 -71.1915 -42.2518 -42.2337 -40.5969 -37.5865 -37.5627 -36.9539
    -4.9724  -4.8528   6.2306   6.7618   7.2929   7.7325   8.2535   8.7218
     9.1350   9.9599  10.4305  11.4044  11.6952  12.8136  16.0458  16.5431
    17.4662  17.7223

          k =-0.6124 0.6124 0.2041 (  1623 PWs)   bands (ev):

   -75.6449 -71.1915 -42.2518 -42.2337 -40.5969 -37.5865 -37.5627 -36.9539
    -4.9860  -4.8436   6.2360   7.0835   7.3463   7.5758   8.0835   8.4954
     9.2738   9.9190  10.4188  11.4426  11.7715  12.7593  16.0981  16.4908
    17.5044  17.8489

          k =-0.7144-0.7144 0.9186 (  1635 PWs)   bands (ev):

   -75.6457 -71.1925 -42.2474 -42.2268 -40.5985 -37.5807 -37.5536 -36.9558
    -5.1054  -5.0290   6.0911   6.8222   7.5243   7.9805   8.3745   8.7083
     9.3987   9.9859  10.2941  11.6632  11.7826  12.8232  15.9102  16.5857
    17.2422  17.7936

          k =-0.4082-0.8165 0.8165 (  1632 PWs)   bands (ev):

   -75.6448 -71.1915 -42.2519 -42.2337 -40.5969 -37.5865 -37.5627 -36.9539
    -4.9339  -4.8908   6.0542   6.8737   7.3736   7.6714   8.1951   8.7693
     9.2995   9.7910  10.4365  11.4461  11.8082  12.8405  16.0430  16.5025
    17.5778  17.7685

          k =-0.1021-0.9186 0.7144 (  1634 PWs)   bands (ev):

   -75.6444 -71.1909 -42.2457 -42.2457 -40.5961 -37.5783 -37.5783 -36.9530
    -4.8365  -4.8363   6.5712   7.0150   7.1727   7.3986   7.7002   8.4601
     9.6226   9.7365  10.3925  11.3527  11.6930  12.7782  16.3039  16.3395
    17.5869  17.7673

          k =-0.5103-0.5103 0.7144 (  1628 PWs)   bands (ev):

   -75.6449 -71.1914 -42.2565 -42.2290 -40.5969 -37.5926 -37.5566 -36.9539
    -4.9421  -4.8795   5.7097   7.0607   7.4666   7.4807   8.6123   8.7302
     9.5272   9.5855  10.3119  11.6137  11.8233  12.7736  16.0631  16.7204
    17.5648  17.8911

          k = 0.2041 0.2041 0.2041 (  1653 PWs)   bands (ev):

   -75.6486 -71.1957 -42.2199 -42.2199 -40.6030 -37.5449 -37.5449 -36.9616
    -5.7948  -5.2030   6.4916   7.1172   7.1172   8.6692   8.7074   8.7074
    10.1040  10.1040  10.5806  12.0653  12.0653  12.5589  16.1571  16.1880
    16.1880  17.3767

          k =-1.3268 0.7144 0.7144 (  1652 PWs)   bands (ev):

   -75.6476 -71.1946 -42.2291 -42.2222 -40.6015 -37.5569 -37.5478 -36.9597
    -5.5379  -5.1877   6.4382   7.2924   7.3146   8.0329   8.4444   9.1063
     9.2945  10.3534  10.9903  11.2332  11.7278  12.7709  15.9468  16.3290
    16.4696  17.5775

          k =-1.0206 0.6124 0.6124 (  1648 PWs)   bands (ev):

   -75.6458 -71.1925 -42.2474 -42.2267 -40.5984 -37.5807 -37.5537 -36.9559
    -5.1545  -4.9766   6.0388   6.8284   7.4932   8.0571   8.3951   8.7520
     9.4394  10.1035  10.4019  11.2963  11.6358  12.8278  15.9292  16.6046
    16.9447  17.8198

          k =-0.8165-0.8165 1.2247 (  1649 PWs)   bands (ev):

   -75.6476 -71.1946 -42.2291 -42.2222 -40.6015 -37.5569 -37.5478 -36.9597
    -5.4414  -5.2905   6.5643   7.2228   7.3250   8.2600   8.4522   8.6259
     9.4561  10.1131  10.8489  11.4334  11.9929  12.7413  15.9651  16.3247
    16.6707  17.4836

          k =-0.5103-0.9186 1.1227 (  1646 PWs)   bands (ev):

   -75.6462 -71.1930 -42.2411 -42.2274 -40.5992 -37.5725 -37.5544 -36.9568
    -5.1563  -5.1314   6.2746   7.0158   7.4845   7.7918   8.4634   8.9497
     9.3918   9.6257  10.9100  11.0401  11.8937  12.8442  15.8690  16.4727
    16.9574  17.5532

          k =-0.3062-0.3062-0.3062 (  1642 PWs)   bands (ev):

   -75.6486 -71.1957 -42.2199 -42.2199 -40.6029 -37.5449 -37.5449 -36.9617
    -5.5289  -5.4912   7.1458   7.1458   7.2134   7.7874   8.7220   8.7220
     9.9532   9.9532  10.5759  12.2111  12.2111  12.4915  16.1778  16.1778
    17.3194  17.3194

 ------ SPIN DOWN ----------


          k = 0.0000 0.0000 0.0000 (  1701 PWs)   bands (ev):

   -75.6475 -71.1968 -42.2188 -42.2188 -40.6021 -37.5460 -37.5460 -36.9624
    -6.0604  -4.8691   5.6232   7.0381   7.0381   8.6740   8.6740  10.0725
    10.7485  10.7895  10.7895  11.3848  11.3848  12.7469  14.5673  16.2170
    16.2170  17.5469

          k = 0.3062-0.1021-0.1021 (  1659 PWs)   bands (ev):

   -75.6465 -71.1957 -42.2280 -42.2211 -40.6005 -37.5580 -37.5489 -36.9605
    -5.8222  -4.8567   6.0588   6.9813   7.2244   8.2513   8.4770   9.4499
     9.9139  10.5397  10.5733  11.5511  11.6442  12.7339  15.9157  16.1139
    16.3304  17.3324

          k = 0.6124-0.2041-0.2041 (  1636 PWs)   bands (ev):

   -75.6447 -71.1936 -42.2463 -42.2256 -40.5973 -37.5819 -37.5548 -36.9569
    -5.3016  -4.8270   6.4590   6.9348   7.4939   7.5046   8.3960   8.5371
     9.3595   9.9929  10.6523  11.3968  11.8348  12.6839  16.0055  16.5644
    16.8624  17.6962

          k =-0.9186 0.3062 0.3062 (  1636 PWs)   bands (ev):

   -75.6438 -71.1926 -42.2554 -42.2279 -40.5958 -37.5937 -37.5577 -36.9551
    -4.9639  -4.8625   6.2597   6.9139   7.1672   7.4874   8.5648   8.7346
     9.3226   9.4904  10.3522  11.5754  11.9626  12.6043  16.0179  16.6792
    17.3102  17.7638

          k = 0.2041 0.2041-0.2041 (  1646 PWs)   bands (ev):

   -75.6465 -71.1957 -42.2280 -42.2211 -40.6005 -37.5580 -37.5489 -36.9606
    -5.7982  -4.8871   6.1521   6.9403   7.2538   8.2411   8.4871   9.5651
     9.7057  10.2723  10.4178  11.8258  11.8782  12.7174  15.8586  16.3227
    16.3247  17.2193

          k = 0.5103 0.1021-0.3062 (  1646 PWs)   bands (ev):

   -75.6451 -71.1941 -42.2400 -42.2263 -40.5981 -37.5736 -37.5555 -36.9578
    -5.4078  -4.8695   6.5252   7.0779   7.2359   7.7953   8.0984   8.9424
     9.2411  10.2634  10.5910  11.3652  11.8051  12.7660  15.9811  16.4507
    16.9885  17.5316

          k =-1.0206 0.6124 0.2041 (  1636 PWs)   bands (ev):

   -75.6438 -71.1926 -42.2507 -42.2326 -40.5958 -37.5876 -37.5638 -36.9550
    -5.0001  -4.8278   6.5316   6.6736   7.2510   7.7366   8.2316   8.4828
     9.1224  10.0848  10.4209  11.4019  11.6051  12.7609  16.0700  16.5607
    17.4297  17.6571

          k =-0.7144 0.5103 0.1021 (  1633 PWs)   bands (ev):

   -75.6438 -71.1926 -42.2507 -42.2326 -40.5958 -37.5876 -37.5638 -36.9550
    -5.0055  -4.8247   6.4866   6.8527   7.3003   7.6624   8.2374   8.2906
     9.1724  10.0892  10.4244  11.2888  11.7552  12.7304  16.1021  16.5265
    17.4212  17.7461

          k =-0.4082 0.4082-0.0000 (  1643 PWs)   bands (ev):

   -75.6451 -71.1941 -42.2400 -42.2263 -40.5981 -37.5737 -37.5555 -36.9578
    -5.4477  -4.8261   6.7533   6.8952   7.1790   7.7916   8.0723   8.9658
     9.1422  10.5064  10.5653  11.2030  11.9078  12.7291  16.0341  16.4403
    17.0659  17.5003

          k = 0.4082 0.4082-0.4082 (  1639 PWs)   bands (ev):

   -75.6446 -71.1936 -42.2463 -42.2257 -40.5974 -37.5818 -37.5547 -36.9568
    -5.2171  -4.9176   6.3076   6.9406   7.5417   7.5451   8.3635   8.6800
     9.3405   9.8882  10.3603  11.8723  11.9411  12.7521  15.9105  16.5526
    17.5338  17.7194

          k =-1.1227 0.9186 0.1021 (  1629 PWs)   bands (ev):

   -75.6437 -71.1926 -42.2507 -42.2326 -40.5959 -37.5876 -37.5637 -36.9549
    -4.9481  -4.8788   6.0616   7.0341   7.4068   7.5929   8.0798   8.6786
     9.4116   9.7166  10.4282  11.6242  11.6992  12.8156  16.0619  16.4835
    17.6555  17.7680

          k =-0.8165 0.8165 0.0000 (  1630 PWs)   bands (ev):

   -75.6433 -71.1921 -42.2446 -42.2445 -40.5951 -37.5794 -37.5793 -36.9540
    -4.8365  -4.8363   6.5703   7.0466   7.1224   7.4334   7.6840   8.4656
     9.5889   9.7715  10.3934  11.3454  11.6984  12.7773  16.3067  16.3352
    17.5830  17.7701

          k =-0.6124-0.6124 0.6124 (  1622 PWs)   bands (ev):

   -75.6437 -71.1926 -42.2554 -42.2279 -40.5959 -37.5936 -37.5577 -36.9549
    -4.9310  -4.8890   5.5862   7.1869   7.4015   7.4607   8.6737   8.7303
     9.6017   9.6187  10.2907  11.6498  11.7762  12.8205  16.0754  16.7313
    17.8268  17.9343

          k = 0.1021 0.1021 0.1021 (  1665 PWs)   bands (ev):

   -75.6475 -71.1968 -42.2188 -42.2188 -40.6020 -37.5460 -37.5460 -36.9625
    -5.9908  -4.9617   5.8528   7.0638   7.0638   8.6842   8.6842   9.6748
    10.4786  10.4786  10.6322  11.6955  11.6955  12.6901  15.0774  16.2072
    16.2072  17.4900

          k = 0.4082 0.0000 0.0000 (  1640 PWs)   bands (ev):

   -75.6465 -71.1957 -42.2280 -42.2211 -40.6004 -37.5580 -37.5489 -36.9606
    -5.7290  -4.9701   6.1971   7.1284   7.2428   8.1559   8.4585   9.2735
     9.6706  10.6452  10.9433  11.2414  11.4451  12.7611  15.9558  16.2325
    16.3308  17.6271

          k =-1.1227 0.5103 0.5103 (  1649 PWs)   bands (ev):

   -75.6447 -71.1936 -42.2463 -42.2256 -40.5973 -37.5818 -37.5548 -36.9569
    -5.2521  -4.8761   6.1737   6.9092   7.4790   7.8361   8.4056   8.6474
     9.4277  10.1057  10.7819  10.9774  11.6626  12.7663  15.9856  16.5949
    16.7815  17.7698

          k =-0.8165 0.4082 0.4082 (  1632 PWs)   bands (ev):

   -75.6438 -71.1926 -42.2554 -42.2279 -40.5958 -37.5937 -37.5577 -36.9550
    -4.9576  -4.8671   6.0261   6.9313   7.3828   7.4806   8.5474   8.7334
     9.3956   9.5214  10.3420  11.5752  11.9167  12.6661  16.0335  16.6934
    17.3677  17.8050

          k =-0.5103 0.3062 0.3062 (  1644 PWs)   bands (ev):

   -75.6447 -71.1936 -42.2463 -42.2257 -40.5974 -37.5818 -37.5548 -36.9568
    -5.2892  -4.8427   6.5710   7.0598   7.1812   7.5254   8.3747   8.5949
     9.3138   9.8925  10.4841  11.7928  11.9670  12.6687  15.9494  16.5408
    17.2059  17.6722

          k = 0.3062 0.3062-0.1021 (  1646 PWs)   bands (ev):

   -75.6465 -71.1957 -42.2280 -42.2211 -40.6004 -37.5580 -37.5489 -36.9607
    -5.6618  -5.0502   6.4183   7.0128   7.3046   8.2486   8.4767   8.9990
     9.6351  10.0816  10.6398  11.6638  12.0595  12.7152  15.9337  16.3205
    16.6869  17.3421

          k =-1.2247 0.8165 0.4082 (  1642 PWs)   bands (ev):

   -75.6451 -71.1941 -42.2400 -42.2263 -40.5981 -37.5736 -37.5555 -36.9578
    -5.2978  -4.9864   6.3391   7.0466   7.4260   7.7999   8.2763   8.9394
     9.3727   9.8437  10.7190  11.2985  11.8125  12.8228  15.8960  16.4664
    16.9483  17.5545

          k =-0.9186 0.7144 0.3062 (  1631 PWs)   bands (ev):

   -75.6437 -71.1926 -42.2507 -42.2326 -40.5958 -37.5876 -37.5638 -36.9550
    -4.9723  -4.8528   6.2309   6.7620   7.2933   7.7330   8.2538   8.7221
     9.1356   9.9602  10.4312  11.4047  11.6956  12.8129  16.0450  16.5422
    17.4655  17.7215

          k =-0.6124 0.6124 0.2041 (  1623 PWs)   bands (ev):

   -75.6438 -71.1926 -42.2507 -42.2326 -40.5958 -37.5876 -37.5637 -36.9550
    -4.9860  -4.8436   6.2363   7.0840   7.3466   7.5763   8.0838   8.4957
     9.2743   9.9194  10.4196  11.4430  11.7718  12.7585  16.0973  16.4899
    17.5036  17.8481

          k =-0.7144-0.7144 0.9186 (  1635 PWs)   bands (ev):

   -75.6446 -71.1936 -42.2463 -42.2257 -40.5974 -37.5818 -37.5547 -36.9569
    -5.1054  -5.0290   6.0914   6.8224   7.5249   7.9808   8.3753   8.7088
     9.3988   9.9861  10.2948  11.6635  11.7829  12.8226  15.9094  16.5848
    17.2416  17.7928

          k =-0.4082-0.8165 0.8165 (  1632 PWs)   bands (ev):

   -75.6437 -71.1926 -42.2507 -42.2326 -40.5959 -37.5876 -37.5638 -36.9549
    -4.9339  -4.8907   6.0545   6.8739   7.3741   7.6718   8.1955   8.7699
     9.2999   9.7912  10.4372  11.4464  11.8086  12.8398  16.0422  16.5016
    17.5770  17.7676

          k =-0.1021-0.9186 0.7144 (  1634 PWs)   bands (ev):

   -75.6433 -71.1921 -42.2446 -42.2446 -40.5951 -37.5794 -37.5793 -36.9540
    -4.8365  -4.8363   6.5715   7.0153   7.1729   7.3991   7.7007   8.4602
     9.6231   9.7370  10.3934  11.3532  11.6934  12.7773  16.3031  16.3387
    17.5861  17.7665

          k =-0.5103-0.5103 0.7144 (  1628 PWs)   bands (ev):

   -75.6438 -71.1926 -42.2554 -42.2279 -40.5959 -37.5937 -37.5577 -36.9549
    -4.9421  -4.8795   5.7099   7.0609   7.4672   7.4810   8.6127   8.7312
     9.5274   9.5855  10.3127  11.6139  11.8236  12.7730  16.0624  16.7194
    17.5641  17.8903

          k = 0.2041 0.2041 0.2041 (  1653 PWs)   bands (ev):

   -75.6475 -71.1968 -42.2188 -42.2188 -40.6019 -37.5460 -37.5460 -36.9627
    -5.7948  -5.2031   6.4917   7.1179   7.1179   8.6693   8.7083   8.7083
    10.1040  10.1040  10.5812  12.0655  12.0655  12.5582  16.1572  16.1871
    16.1872  17.3759

          k =-1.3268 0.7144 0.7144 (  1652 PWs)   bands (ev):

   -75.6465 -71.1957 -42.2280 -42.2211 -40.6004 -37.5580 -37.5489 -36.9608
    -5.5379  -5.1877   6.4385   7.2930   7.3149   8.0334   8.4452   9.1065
     9.2949  10.3535  10.9907  11.2336  11.7281  12.7703  15.9461  16.3281
    16.4691  17.5767

          k =-1.0206 0.6124 0.6124 (  1648 PWs)   bands (ev):

   -75.6446 -71.1936 -42.2463 -42.2256 -40.5974 -37.5818 -37.5548 -36.9569
    -5.1545  -4.9766   6.0391   6.8286   7.4937   8.0574   8.3960   8.7526
     9.4396  10.1037  10.4025  11.2967  11.6361  12.8271  15.9284  16.6037
    16.9441  17.8190

          k =-0.8165-0.8165 1.2247 (  1649 PWs)   bands (ev):

   -75.6465 -71.1957 -42.2280 -42.2211 -40.6004 -37.5580 -37.5489 -36.9608
    -5.4414  -5.2905   6.5647   7.2230   7.3258   8.2606   8.4529   8.6259
     9.4565  10.1131  10.8493  11.4338  11.9932  12.7406  15.9643  16.3238
    16.6701  17.4828

          k =-0.5103-0.9186 1.1227 (  1646 PWs)   bands (ev):

   -75.6451 -71.1941 -42.2400 -42.2263 -40.5981 -37.5736 -37.5555 -36.9579
    -5.1563  -5.1313   6.2750   7.0160   7.4852   7.7923   8.4639   8.9504
     9.3917   9.6261  10.9105  11.0405  11.8941  12.8435  15.8683  16.4718
    16.9568  17.5524

          k =-0.3062-0.3062-0.3062 (  1642 PWs)   bands (ev):

   -75.6475 -71.1968 -42.2188 -42.2188 -40.6019 -37.5460 -37.5460 -36.9627
    -5.5289  -5.4913   7.1465   7.1465   7.2137   7.7872   8.7229   8.7229
     9.9531   9.9531  10.5765  12.2114  12.2114  12.4908  16.1769  16.1769
    17.3185  17.3185

     the Fermi energy is    13.7984 ev

!    total energy              =    -565.08515863 Ry
     estimated scf accuracy    <       0.00000061 Ry
     smearing contrib. (-TS)   =       0.00000030 Ry
     internal energy E=F+TS    =    -565.08515893 Ry

     The total energy is F=E-TS. E is the sum of the following terms:
     one-electron contribution =    -276.75234338 Ry
     hartree contribution      =     163.03307213 Ry
     xc contribution           =     -73.44531797 Ry
     ewald contribution        =    -378.02415735 Ry
     Hubbard energy            =       0.10358763 Ry

     total magnetization       =     0.00 Bohr mag/cell
     absolute magnetization    =     7.51 Bohr mag/cell

     convergence has been achieved in  10 iterations

     Writing all to output data dir ./data/FeO.save/
 
     init_run     :      1.57s CPU      3.93s WALL (       1 calls)
     electrons    :     19.29s CPU     28.97s WALL (       1 calls)

     Called by init_run:
     wfcinit      :      0.85s CPU      1.69s WALL (       1 calls)
     potinit      :      0.15s CPU      0.80s WALL (       1 calls)
     hinit0       :      0.47s CPU      1.28s WALL (       1 calls)

     Called by electrons:
     c_bands      :     14.96s CPU     15.40s WALL (      10 calls)
     sum_band     :      3.29s CPU      3.41s WALL (      10 calls)
     v_of_rho     :      0.63s CPU      0.97s WALL (      11 calls)
     newd         :      0.38s CPU      0.47s WALL (      11 calls)
     mix_rho      :      0.11s CPU      0.12s WALL (      10 calls)

     Called by c_bands:
     init_us_2    :      0.09s CPU      0.09s WALL (    1408 calls)
     init_us_2:cp :      0.09s CPU      0.09s WALL (    1408 calls)
     cegterg      :     14.43s CPU     14.77s WALL (     640 calls)

     Called by *egterg:
     cdiaghg      :      1.41s CPU      1.53s WALL (    2463 calls)
     h_psi        :     12.58s CPU     13.06s WALL (    2527 calls)
     s_psi        :      0.18s CPU      0.19s WALL (    2591 calls)
     g_psi        :      0.02s CPU      0.02s WALL (    1823 calls)

     Called by h_psi:
     h_psi:calbec :      0.33s CPU      0.33s WALL (    2527 calls)
     vloc_psi     :     11.82s CPU     12.29s WALL (    2527 calls)
     add_vuspsi   :      0.18s CPU      0.18s WALL (    2527 calls)
     vhpsi        :      0.23s CPU      0.24s WALL (    2527 calls)

     General routines
     calbec       :      0.75s CPU      0.77s WALL (    6398 calls)
     fft          :      0.65s CPU      1.50s WALL (     269 calls)
     ffts         :      0.02s CPU      0.04s WALL (      42 calls)
     fftw         :     13.26s CPU     13.74s WALL (  106514 calls)
     interpolate  :      0.05s CPU      0.10s WALL (      22 calls)
     davcio       :      0.00s CPU      2.82s WALL (      64 calls)
 
     Parallel routines

     Hubbard U routines
     new_ns       :      0.08s CPU      0.08s WALL (      10 calls)
     vhpsi        :      0.23s CPU      0.24s WALL (    2527 calls)
 
     PWSCF        :     21.47s CPU     49.11s WALL

 
   This run was terminated on:  15:21:38   5Jun2026            

=------------------------------------------------------------------------------=
   JOB DONE.
=------------------------------------------------------------------------------=
