
     Program PWSCF v.7.1 starts on  5Jun2026 at 15:21:51 

     This program is part of the open-source Quantum ESPRESSO suite
     for quantum simulation of materials; please cite
         "P. Giannozzi et al., J. Phys.:Condens. Matter 21 395502 (2009);
         "P. Giannozzi et al., J. Phys.:Condens. Matter 29 465901 (2017);
         "P. Giannozzi et al., J. Chem. Phys. 152 154105 (2020);
          URL http://www.quantum-espresso.org", 
     in publications or presentations arising from this work. More details at
     http://www.quantum-espresso.org/quote

     Parallel version (MPI & OpenMP), running on       7 processor cores
     Number of MPI processes:                 7
     Threads/MPI process:                     1

     MPI processes distributed on     7 nodes
     224546 MiB available memory on the printing compute node when the environment starts
 
     Waiting for input...
     Reading input from standard input

     Current dimensions of program PWSCF are:
     Max number of different atomic species (ntypx) = 10
     Max number of k-points (npk) =  40000
     Max angular momentum in pseudopotentials (lmaxx) =  4
     Message from routine volume:
     axis vectors are left-handed

     Atomic positions and unit cell read from directory:
     ./data/FeO.save/
     Atomic positions from file used, from input discarded
 
     Message from routine volume:
     axis vectors are left-handed
     Message from routine setup:
     using ibrav=0 with symmetry is DISCOURAGED, use correct ibrav instead
 
     R & G space division:  proc/nbgrp/npool/nimage =       7
     Subspace diagonalization in iterative solution of the eigenvalue problem:
     a serial algorithm will be used

 
     Parallelization info
     --------------------
     sticks:   dense  smooth     PW     G-vecs:    dense   smooth      PW
     Min         316     126     42                 7408     1873     364
     Max         317     127     43                 7409     1875     365
     Sum        2213     887    299                51859    13117    2551
 
     Using Slab Decomposition
 


     bravais-lattice index     =            0
     lattice parameter (alat)  =      10.0307  a.u.
     unit-cell volume          =     274.6764 (a.u.)^3
     number of atoms/cell      =            4
     number of atomic types    =            3
     number of electrons       =        44.00
     number of Kohn-Sham states=           40
     kinetic-energy cutoff     =      50.0000  Ry
     charge density cutoff     =     500.0000  Ry
     Exchange-correlation=  SLA  PW   PBX  PBC
                           (   1   4   3   4   0   0   0)
     Hubbard projectors: ortho-atomic
     Hubbard parameters of DFT+U (Dudarev formulation) in eV:
     U(Fe1-3d) =  4.0000
     U(Fe2-3d) =  4.0000

     Internal variables: lda_plus_u = T, lda_plus_u_kind = 0

     celldm(1)=  10.030657  celldm(2)=   0.000000  celldm(3)=   0.000000
     celldm(4)=   0.000000  celldm(5)=   0.000000  celldm(6)=   0.000000

     crystal axes: (cart. coord. in units of alat)
               a(1) = (   0.408248   0.408248   0.816497 )  
               a(2) = (   0.408248   0.816497   0.408248 )  
               a(3) = (   0.816497   0.408248   0.408248 )  

     reciprocal axes: (cart. coord. in units 2 pi/alat)
               b(1) = ( -0.612372 -0.612372  1.837117 )  
               b(2) = ( -0.612372  1.837117 -0.612372 )  
               b(3) = (  1.837117 -0.612372 -0.612372 )  


     PseudoPot. # 1 for O  read from file:
     /home/k0750/k075000/PSPOT/o_pbe_v1.2.uspp.F.UPF
     MD5 check sum: 734c27235a0248c51dbae37a1fbe46ec
     Pseudo is Ultrasoft + core correction, Zval =  6.0
     Generated by new atomic code, or converted to UPF format
     Using radial grid of  737 points,  5 beta functions with: 
                l(1) =   0
                l(2) =   0
                l(3) =   1
                l(4) =   1
                l(5) =   2
     Q(r) pseudized with  8 coefficients,  rinner =    0.900   0.900   0.900
                                                       0.900   0.900

     PseudoPot. # 2 for Fe read from file:
     /home/k0750/k075000/PSPOT/fe_pbe_v1.5.uspp.F.UPF
     MD5 check sum: a130daea23fe5165f5d574ae7f82ed95
     Pseudo is Ultrasoft + core correction, Zval = 16.0
     Generated by new atomic code, or converted to UPF format
     Using radial grid of  861 points,  6 beta functions with: 
                l(1) =   0
                l(2) =   0
                l(3) =   1
                l(4) =   1
                l(5) =   2
                l(6) =   2
     Q(r) pseudized with  8 coefficients,  rinner =    1.000   1.000   1.000
                                                       1.000   1.000

     PseudoPot. # 3 for Fe read from file:
     /home/k0750/k075000/PSPOT/fe_pbe_v1.5.uspp.F.UPF
     MD5 check sum: a130daea23fe5165f5d574ae7f82ed95
     Pseudo is Ultrasoft + core correction, Zval = 16.0
     Generated by new atomic code, or converted to UPF format
     Using radial grid of  861 points,  6 beta functions with: 
                l(1) =   0
                l(2) =   0
                l(3) =   1
                l(4) =   1
                l(5) =   2
                l(6) =   2
     Q(r) pseudized with  8 coefficients,  rinner =    1.000   1.000   1.000
                                                       1.000   1.000

     atomic species   valence    mass     pseudopotential
        O              6.00    16.00000     O ( 1.00)
        Fe1           16.00    55.85000     Fe( 1.00)
        Fe2           16.00    55.85000     Fe( 1.00)

     Starting magnetic structure 
     atomic species   magnetization
        O            0.000
        Fe1          0.500
        Fe2         -0.500

     12 Sym. Ops., with inversion, found



   Cartesian axes

     site n.     atom                  positions (alat units)
         1           O   tau(   1) = (   0.4082483   0.4082483   0.4082483  )
         2           O   tau(   2) = (   1.2247449   1.2247449   1.2247449  )
         3           Fe1 tau(   3) = (   0.0000000   0.0000000   0.0000000  )
         4           Fe2 tau(   4) = (   0.8164966   0.8164966   0.8164966  )

     number of k points=   189 (tetrahedron method)

     Number of k-points >= 100: set verbosity='high' to print them.

     Dense  grid:    51859 G-vectors     FFT dimensions: (  72,  72,  72)

     Smooth grid:    13117 G-vectors     FFT dimensions: (  45,  45,  45)

     Estimated max dynamical RAM per process >      34.28 MB

     Estimated total dynamical RAM >     239.95 MB

     Check: negative core charge=   -0.000014
     Generating pointlists ...
     new r_m :   0.1684 (alat units)  1.6892 (a.u.) for type    1
     new r_m :   0.1684 (alat units)  1.6892 (a.u.) for type    2
     new r_m :   0.1684 (alat units)  1.6892 (a.u.) for type    3

     The potential is recalculated from file :
     ./data/FeO.save/charge-density


     STARTING HUBBARD OCCUPATIONS:

     =================== HUBBARD OCCUPATIONS ===================
     ------------------------ ATOM    3 ------------------------
     Tr[ns(  3)] (up, down, total) =   4.93499  1.22104  6.15603
     Atomic magnetic moment for atom   3 =   3.71394
     SPIN  1
     eigenvalues:
       0.980  0.988  0.988  0.990  0.990
     eigenvectors (columns):
      -0.000 -0.216 -0.017  0.448  0.867
      -0.577  0.343  0.720 -0.096  0.149
      -0.577  0.452 -0.657  0.177  0.008
       0.000  0.017 -0.216 -0.867  0.448
       0.577  0.795  0.063  0.081  0.157
     occupation matrix ns (before diag.):
       0.990  0.000  0.000  0.000  0.000
       0.000  0.985 -0.003  0.000  0.003
       0.000 -0.003  0.985 -0.000  0.003
       0.000  0.000 -0.000  0.990 -0.000
       0.000  0.003  0.003 -0.000  0.985
     SPIN  2
     eigenvalues:
       0.031  0.031  0.102  0.102  0.954
     eigenvectors (columns):
      -0.056 -0.090 -0.270 -0.957  0.000
       0.812 -0.026  0.060 -0.062 -0.577
      -0.383  0.716 -0.084 -0.021 -0.577
      -0.090  0.056  0.957 -0.270 -0.000
       0.428  0.690 -0.023 -0.083  0.577
     occupation matrix ns (before diag.):
       0.101  0.003  0.003  0.000  0.006
       0.003  0.339  0.307  0.005 -0.307
       0.003  0.307  0.339 -0.005 -0.307
       0.000  0.005 -0.005  0.101 -0.000
       0.006 -0.307 -0.307 -0.000  0.339
     ------------------------ ATOM    4 ------------------------
     Tr[ns(  4)] (up, down, total) =   1.22098  4.93497  6.15595
     Atomic magnetic moment for atom   4 =  -3.71399
     SPIN  1
     eigenvalues:
       0.031  0.031  0.102  0.102  0.954
     eigenvectors (columns):
       0.051  0.093  0.683 -0.723  0.000
      -0.812 -0.017 -0.025 -0.083 -0.577
       0.421 -0.695  0.084  0.020 -0.577
       0.093 -0.051 -0.723 -0.683 -0.000
      -0.391 -0.711  0.059 -0.063  0.577
     occupation matrix ns (before diag.):
       0.101  0.003  0.003  0.000  0.006
       0.003  0.339  0.307  0.005 -0.307
       0.003  0.307  0.339 -0.005 -0.307
       0.000  0.005 -0.005  0.101 -0.000
       0.006 -0.307 -0.307 -0.000  0.339
     SPIN  2
     eigenvalues:
       0.980  0.988  0.988  0.990  0.990
     eigenvectors (columns):
      -0.000 -0.217 -0.005  0.485  0.847
      -0.577  0.383  0.699 -0.089  0.153
      -0.577  0.414 -0.681  0.177  0.001
       0.000  0.005 -0.217 -0.847  0.485
       0.577  0.797  0.018  0.088  0.154
     occupation matrix ns (before diag.):
       0.990  0.000  0.000  0.000  0.000
       0.000  0.985 -0.003  0.000  0.003
       0.000 -0.003  0.985 -0.000  0.003
       0.000  0.000 -0.000  0.990 -0.000
       0.000  0.003  0.003 -0.000  0.985

     Number of occupied Hubbard levels =   12.3120

     Atomic wfc used for Hubbard projectors are orthogonalized

     Starting wfcs are   34 randomized atomic wfcs +    6 random wfcs

     Band Structure Calculation
     Davidson diagonalization with overlap

     ethr =  2.27E-09,  avg # of iterations = 24.6

     total cpu time spent up to now is      117.7 secs

     End of band structure calculation

     Number of k-points >= 100: set verbosity='high' to print the bands.

     the Fermi energy is    12.8593 ev
     (compare with:    13.7984 eV, computed in scf)

     Writing all to output data dir ./data/FeO.save/
 
     init_run     :      6.26s CPU      8.96s WALL (       1 calls)
     electrons    :    103.48s CPU    108.13s WALL (       1 calls)

     Called by init_run:
     wfcinit      :      5.99s CPU      8.55s WALL (       1 calls)
     potinit      :      0.10s CPU      0.17s WALL (       1 calls)
     hinit0       :      0.09s CPU      0.13s WALL (       1 calls)

     Called by electrons:
     c_bands      :    102.82s CPU    107.47s WALL (       1 calls)
     v_of_rho     :      0.08s CPU      0.11s WALL (       1 calls)
     newd         :      0.03s CPU      0.04s WALL (       1 calls)

     Called by c_bands:
     init_us_2    :      0.05s CPU      0.06s WALL (     756 calls)
     init_us_2:cp :      0.05s CPU      0.06s WALL (     756 calls)
     cegterg      :     69.10s CPU     69.82s WALL (     656 calls)

     Called by *egterg:
     cdiaghg      :     15.75s CPU     15.87s WALL (    9692 calls)
     h_psi        :     50.80s CPU     51.45s WALL (   10348 calls)
     s_psi        :      0.78s CPU      0.80s WALL (   10726 calls)
     g_psi        :      0.13s CPU      0.13s WALL (    9314 calls)

     Called by h_psi:
     h_psi:calbec :      1.25s CPU      1.26s WALL (   10348 calls)
     vloc_psi     :     47.89s CPU     48.51s WALL (   10348 calls)
     add_vuspsi   :      0.75s CPU      0.76s WALL (   10348 calls)
     vhpsi        :      0.83s CPU      0.84s WALL (   10348 calls)

     General routines
     calbec       :      7.51s CPU      7.55s WALL (   21074 calls)
     fft          :      0.06s CPU      0.13s WALL (      23 calls)
     ffts         :      0.00s CPU      0.01s WALL (       2 calls)
     fftw         :     45.26s CPU     45.84s WALL (  366258 calls)
     interpolate  :      0.01s CPU      0.02s WALL (       2 calls)
     davcio       :      0.11s CPU      6.24s WALL (    1512 calls)
 
     Parallel routines

     Hubbard U routines
     vhpsi        :      0.83s CPU      0.84s WALL (   10348 calls)
 
     PWSCF        :   1m51.82s CPU   2m20.36s WALL

 
   This run was terminated on:  15:24:12   5Jun2026            

=------------------------------------------------------------------------------=
   JOB DONE.
=------------------------------------------------------------------------------=
